       N       E                     dE             d eps       ncg     rms          rms(c)
DAV:   1     0.134689774403E+05    0.13469E+05   -0.55823E+05 12176   0.185E+03
DAV:   2     0.707096020471E+03   -0.12762E+05   -0.12377E+05 10336   0.626E+02
DAV:   3    -0.366580835574E+03   -0.10737E+04   -0.88373E+03 10726   0.189E+02
DAV:   4    -0.423207642701E+03   -0.56627E+02   -0.55174E+02 11136   0.427E+01
DAV:   5    -0.424072463220E+03   -0.86482E+00   -0.86412E+00 10944   0.501E+00    0.681E+01
DAV:   6    -0.400405739616E+03    0.23667E+02   -0.67478E+02 10812   0.719E+01    0.577E+01
DAV:   7    -0.361784703046E+03    0.38621E+02   -0.14847E+02 10738   0.337E+01    0.603E+00
DAV:   8    -0.361995710944E+03   -0.21101E+00   -0.14242E+00 10838   0.235E+00    0.325E+00
DAV:   9    -0.361880237398E+03    0.11547E+00   -0.32464E-01 11042   0.959E-01    0.813E-01
DAV:  10    -0.361886360141E+03   -0.61227E-02   -0.15482E-02 11482   0.225E-01    0.371E-01
DAV:  11    -0.361890708858E+03   -0.43487E-02   -0.94265E-03 10918   0.205E-01    0.133E-01
DAV:  12    -0.361890684996E+03    0.23861E-04   -0.94974E-04 11124   0.700E-02    0.195E-02
DAV:  13    -0.361890680683E+03    0.43133E-05   -0.43618E-05 10988   0.143E-02    0.186E-02
DAV:  14    -0.361890659820E+03    0.20863E-04   -0.47926E-06  8068   0.510E-03    0.881E-03
DAV:  15    -0.361890651555E+03    0.82655E-05   -0.20416E-06  6252   0.374E-03    0.858E-04
DAV:  16    -0.361890651959E+03   -0.40454E-06   -0.17128E-07  5396   0.890E-04
   1 F= -.36189065E+03 E0= -.36187271E+03  d E =-.538158E-01  mag=    45.7166
 Found     1 degrees of freedom:
       N       E                     dE             d eps       ncg     rms          rms(c)
DAV:   1    -0.361550792830E+03    0.33986E+00   -0.96474E+00 20506   0.285E+01    0.108E+00
DAV:   2    -0.361909881815E+03   -0.35909E+00   -0.33410E+00 15980   0.288E+00    0.360E+00
DAV:   3    -0.361893049796E+03    0.16832E-01   -0.16329E-01 19450   0.161E+00    0.151E+00
DAV:   4    -0.361902193442E+03   -0.91436E-02   -0.26093E-02 18904   0.122E+00    0.245E+00
DAV:   5    -0.361889192268E+03    0.13001E-01   -0.96776E-03 16810   0.904E-01    0.503E-01
DAV:   6    -0.361888926893E+03    0.26537E-03   -0.14958E-03 19624   0.214E-01    0.308E-01
DAV:   7    -0.361888814587E+03    0.11231E-03   -0.36331E-04 17218   0.125E-01    0.307E-01
DAV:   8    -0.361888625565E+03    0.18902E-03   -0.22404E-04 17152   0.123E-01    0.251E-01
DAV:   9    -0.361888717123E+03   -0.91558E-04   -0.36079E-04 17352   0.169E-01    0.376E-01
DAV:  10    -0.361888337127E+03    0.38000E-03   -0.49351E-04 19600   0.189E-01    0.212E-01
DAV:  11    -0.361888259996E+03    0.77131E-04   -0.20177E-04 20472   0.888E-02    0.740E-02
DAV:  12    -0.361888279562E+03   -0.19567E-04   -0.63442E-05 21168   0.602E-02    0.105E-01
DAV:  13    -0.361888254477E+03    0.25085E-04   -0.37689E-05 17544   0.515E-02    0.271E-02
DAV:  14    -0.361888261766E+03   -0.72889E-05   -0.12137E-05 19320   0.267E-02    0.589E-02
DAV:  15    -0.361888254890E+03    0.68763E-05   -0.71720E-06 15768   0.242E-02    0.148E-02
DAV:  16    -0.361888254940E+03   -0.49680E-07   -0.14703E-06  8440   0.926E-03
   2 F= -.36188825E+03 E0= -.36187031E+03  d E =-.538226E-01  mag=    45.7165
       N       E                     dE             d eps       ncg     rms          rms(c)
DAV:   1    -0.361749749983E+03    0.13850E+00   -0.47681E+00 20696   0.178E+01    0.393E-01
DAV:   2    -0.361891427062E+03   -0.14168E+00   -0.13682E+00 15698   0.183E+00    0.157E+00
DAV:   3    -0.361890161147E+03    0.12659E-02   -0.47468E-02 19356   0.715E-01    0.443E-01
DAV:   4    -0.361891879179E+03   -0.17180E-02   -0.50000E-03 19338   0.464E-01    0.909E-01
DAV:   5    -0.361890132957E+03    0.17462E-02   -0.16767E-03 16748   0.359E-01    0.183E-01
DAV:   6    -0.361890091768E+03    0.41189E-04   -0.22890E-04 19216   0.876E-02    0.974E-02
DAV:   7    -0.361890084454E+03    0.73142E-05   -0.65726E-05 17658   0.572E-02    0.111E-01
DAV:   8    -0.361890055577E+03    0.28877E-04   -0.49444E-05 17296   0.600E-02    0.821E-02
DAV:   9    -0.361890099990E+03   -0.44413E-04   -0.79008E-05 17416   0.814E-02    0.169E-01
DAV:  10    -0.361890033763E+03    0.66227E-04   -0.79147E-05 19032   0.789E-02    0.713E-02
DAV:  11    -0.361890025203E+03    0.85595E-05   -0.25677E-05 20272   0.321E-02    0.245E-02
DAV:  12    -0.361890027222E+03   -0.20188E-05   -0.73286E-06 16592   0.197E-02    0.319E-02
DAV:  13    -0.361890025059E+03    0.21629E-05   -0.36098E-06 12968   0.158E-02    0.816E-03
DAV:  14    -0.361890025378E+03   -0.31921E-06   -0.67093E-07  8022   0.659E-03
   3 F= -.36189003E+03 E0= -.36187209E+03  d E =-.538153E-01  mag=    45.7166
       N       E                     dE             d eps       ncg     rms          rms(c)
DAV:   1    -0.361597074993E+03    0.29295E+00   -0.86380E+00 20702   0.262E+01    0.970E-01
DAV:   2    -0.361906049343E+03   -0.30897E+00   -0.28897E+00 15886   0.269E+00    0.323E+00
DAV:   3    -0.361893836049E+03    0.12213E-01   -0.13624E-01 18684   0.147E+00    0.137E+00
DAV:   4    -0.361901097567E+03   -0.72615E-02   -0.21297E-02 19052   0.109E+00    0.218E+00
DAV:   5    -0.361890743991E+03    0.10354E-01   -0.78962E-03 16796   0.811E-01    0.439E-01
DAV:   6    -0.361890549397E+03    0.19459E-03   -0.12254E-03 19786   0.190E-01    0.269E-01
DAV:   7    -0.361890454848E+03    0.94549E-04   -0.29411E-04 17212   0.113E-01    0.269E-01
DAV:   8    -0.361890311824E+03    0.14302E-03   -0.19819E-04 17194   0.117E-01    0.225E-01
DAV:   9    -0.361890449020E+03   -0.13720E-03   -0.36648E-04 17216   0.172E-01    0.377E-01
DAV:  10    -0.361890093717E+03    0.35530E-03   -0.46452E-04 19818   0.183E-01    0.196E-01
DAV:  11    -0.361890027058E+03    0.66659E-04   -0.17026E-04 20256   0.827E-02    0.635E-02
DAV:  12    -0.361890046037E+03   -0.18979E-04   -0.53819E-05 20744   0.553E-02    0.960E-02
DAV:  13    -0.361890025136E+03    0.20901E-04   -0.31153E-05 17096   0.471E-02    0.250E-02
DAV:  14    -0.361890030031E+03   -0.48949E-05   -0.90094E-06 18592   0.228E-02    0.500E-02
DAV:  15    -0.361890025109E+03    0.49213E-05   -0.51659E-06 13432   0.204E-02    0.126E-02
DAV:  16    -0.361890025137E+03   -0.27212E-07   -0.10979E-06  8144   0.811E-03
   4 F= -.36189003E+03 E0= -.36187209E+03  d E =-.538167E-01  mag=    45.7166
       N       E                     dE             d eps       ncg     rms          rms(c)
DAV:   1    -0.361741800916E+03    0.14822E+00   -0.46956E+00 20628   0.179E+01    0.565E-01
DAV:   2    -0.361891166432E+03   -0.14937E+00   -0.14446E+00 15842   0.189E+00    0.173E+00
DAV:   3    -0.361889955728E+03    0.12107E-02   -0.55349E-02 19104   0.888E-01    0.890E-01
DAV:   4    -0.361891747758E+03   -0.17920E-02   -0.72950E-03 18676   0.622E-01    0.122E+00
DAV:   5    -0.361888509526E+03    0.32382E-02   -0.25020E-03 16798   0.467E-01    0.236E-01
DAV:   6    -0.361888465066E+03    0.44460E-04   -0.36704E-04 19536   0.100E-01    0.166E-01
DAV:   7    -0.361888421087E+03    0.43979E-04   -0.82059E-05 17094   0.596E-02    0.157E-01
DAV:   8    -0.361888379342E+03    0.41746E-04   -0.53494E-05 17088   0.602E-02    0.138E-01
DAV:   9    -0.361888399145E+03   -0.19804E-04   -0.10637E-04 17330   0.939E-02    0.210E-01
DAV:  10    -0.361888259428E+03    0.13972E-03   -0.13500E-04 20056   0.991E-02    0.573E-02
DAV:  11    -0.361888259519E+03   -0.91823E-07   -0.43396E-05 20456   0.357E-02    0.489E-02
DAV:  12    -0.361888261628E+03   -0.21088E-05   -0.16791E-05 18272   0.305E-02    0.580E-02
DAV:  13    -0.361888254786E+03    0.68420E-05   -0.10225E-05 16768   0.257E-02    0.147E-02
DAV:  14    -0.361888255796E+03   -0.10100E-05   -0.21348E-06 10288   0.113E-02    0.225E-02
DAV:  15    -0.361888254825E+03    0.97143E-06   -0.16137E-06  8112   0.103E-02
   5 F= -.36188825E+03 E0= -.36187031E+03  d E =-.538235E-01  mag=    45.7165
