 vasp.5.4.1 05Feb16 (build Oct 12 2016 17:31:35) complex                        
  
 executed on           IFC91_ompi date 2020.09.07  16:22:06
 running on    1 total cores
 distrk:  each k-point on    1 cores,    1 groups
 distr:  one band on NCORES_PER_BAND=   1 cores,    1 groups


--------------------------------------------------------------------------------------------------------


 INCAR:
 POTCAR:   PAW_PBE Ni_pv 06Sep2000                
 POTCAR:   PAW_PBE Ni_pv 06Sep2000                
  local pseudopotential read in
  partial core-charges read in
  atomic valenz-charges read in
  non local Contribution for L=           1  read in
    real space projection operators read in
  non local Contribution for L=           1  read in
    real space projection operators read in
  non local Contribution for L=           2  read in
    real space projection operators read in
  non local Contribution for L=           2  read in
    real space projection operators read in
  non local Contribution for L=           0  read in
    real space projection operators read in
  non local Contribution for L=           0  read in
    real space projection operators read in
    PAW grid and wavefunctions read in
 
   number of l-projection  operators is LMAX  =           6
   number of lm-projection operators is LMMAX =          18
 
 Optimization of the real space projectors (new method)

 maximal supplied QI-value         = 18.90
 optimisation between [QCUT,QGAM] = [  9.83, 19.65] = [ 27.04,108.16] Ry 
 Optimized for a Real-space Cutoff    1.44 Angstroem

   l    n(q)    QCUT    max X(q) W(low)/X(q) W(high)/X(q)  e(spline) 
   1      8     9.827     3.231    0.38E-04    0.39E-04    0.57E-07
   1      8     9.827     4.241    0.57E-04    0.19E-03    0.30E-06
   2      7     9.827     3.566    0.29E-04    0.66E-04    0.48E-07
   2      7     9.827    20.429    0.17E-03    0.37E-03    0.30E-06
   0      8     9.827    19.799    0.18E-04    0.76E-05    0.78E-08
   0      8     9.827    52.283    0.39E-04    0.68E-04    0.44E-07
 PAW_PBE Ni_pv 06Sep2000                :
 energy of atom  1       EATOM=-3500.3496
 kinetic energy error for atom=    0.1419 (will be added to EATOM!!)
 
 
 POSCAR: Supercell by Yi Wang                    
  positions in direct lattice
  No initial velocities read in
 exchange correlation table for  LEXCH =        8
   RHO(1)=    0.500       N(1)  =     2000
   RHO(2)=  100.500       N(2)  =     4000
 


--------------------------------------------------------------------------------------------------------


 ion  position               nearest neighbor table
   1  0.000  0.000  0.000-
   2  0.000  0.000  0.250-
   3  0.000  0.000  0.500-
   4  0.000  0.000  0.750-
   5  0.000  0.250  0.000-
   6  0.000  0.250  0.250-
   7  0.000  0.250  0.500-
   8  0.000  0.250  0.750-
   9  0.000  0.500  0.000-
  10  0.000  0.500  0.250-
  11  0.000  0.500  0.500-
  12  0.000  0.500  0.750-
  13  0.000  0.750  0.000-
  14  0.000  0.750  0.250-
  15  0.000  0.750  0.500-
  16  0.000  0.750  0.750-
  17  0.250  0.000  0.000-
  18  0.250  0.000  0.250-
  19  0.250  0.000  0.500-
  20  0.250  0.000  0.750-
  21  0.250  0.250  0.000-
  22  0.250  0.250  0.250-
  23  0.250  0.250  0.500-
  24  0.250  0.250  0.750-
  25  0.250  0.500  0.000-
  26  0.250  0.500  0.250-
  27  0.250  0.500  0.500-
  28  0.250  0.500  0.750-
  29  0.250  0.750  0.000-
  30  0.250  0.750  0.250-
  31  0.250  0.750  0.500-
  32  0.250  0.750  0.750-
  33  0.500  0.000  0.000-
  34  0.500  0.000  0.250-
  35  0.500  0.000  0.500-
  36  0.500  0.000  0.750-
  37  0.500  0.250  0.000-
  38  0.500  0.250  0.250-
  39  0.500  0.250  0.500-
  40  0.500  0.250  0.750-
  41  0.500  0.500  0.000-
  42  0.500  0.500  0.250-
  43  0.500  0.500  0.500-
  44  0.500  0.500  0.750-
  45  0.500  0.750  0.000-
  46  0.500  0.750  0.250-
  47  0.500  0.750  0.500-
  48  0.500  0.750  0.750-
  49  0.750  0.000  0.000-
  50  0.750  0.000  0.250-
  51  0.750  0.000  0.500-
  52  0.750  0.000  0.750-
  53  0.750  0.250  0.000-
  54  0.750  0.250  0.250-
  55  0.750  0.250  0.500-
  56  0.750  0.250  0.750-
  57  0.750  0.500  0.000-
  58  0.750  0.500  0.250-
  59  0.750  0.500  0.500-
  60  0.750  0.500  0.750-
  61  0.750  0.750  0.000-
  62  0.750  0.750  0.250-
  63  0.750  0.750  0.500-
  64  0.750  0.750  0.750-
 
  LATTYP: Found a face centered cubic cell.
 ALAT       =    14.7345000000
  
  Lattice vectors:
  
 A1 = (   0.0000000000,   7.3672500000,   7.3672500000)
 A2 = (   7.3672500000,   0.0000000000,   7.3672500000)
 A3 = (   7.3672500000,   7.3672500000,   0.0000000000)


Analysis of symmetry for initial positions (statically):
=====================================================================
 Subroutine PRICEL returns following result:
 
  LATTYP: Found a face centered cubic cell.
 ALAT       =     3.6836250000
  
  Lattice vectors:
  
 A1 = (   0.0000000000,   1.8418125000,   1.8418125000)
 A2 = (   1.8418125000,   0.0000000000,   1.8418125000)
 A3 = (   1.8418125000,   1.8418125000,   0.0000000000)
 
  64 primitive cells build up your supercell.
 

 Routine SETGRP: Setting up the symmetry group for a 
 face centered cubic supercell.


 Subroutine GETGRP returns: Found 48 space group operations
 (whereof 48 operations were pure point group operations)
 out of a pool of 48 trial point group operations.


The static configuration has the point symmetry O_h .


Analysis of symmetry for dynamics (positions and initial velocities):
=====================================================================
 Subroutine PRICEL returns following result:
 
  LATTYP: Found a face centered cubic cell.
 ALAT       =     3.6836250000
  
  Lattice vectors:
  
 A1 = (   0.0000000000,   1.8418125000,   1.8418125000)
 A2 = (   1.8418125000,   0.0000000000,   1.8418125000)
 A3 = (   1.8418125000,   1.8418125000,   0.0000000000)
 
  64 primitive cells build up your supercell.
 

 Routine SETGRP: Setting up the symmetry group for a 
 face centered cubic supercell.


 Subroutine GETGRP returns: Found 48 space group operations
 (whereof 48 operations were pure point group operations)
 out of a pool of 48 trial point group operations.


The dynamic configuration has the point symmetry O_h .


Analysis of structural, dynamic, and magnetic symmetry:
=====================================================================
 Subroutine PRICEL returns following result:
 
  LATTYP: Found a face centered cubic cell.
 ALAT       =     3.6836250000
  
  Lattice vectors:
  
 A1 = (   0.0000000000,   1.8418125000,   1.8418125000)
 A2 = (   1.8418125000,   0.0000000000,   1.8418125000)
 A3 = (   1.8418125000,   1.8418125000,   0.0000000000)
 
  64 primitive cells build up your supercell.
 

 Routine SETGRP: Setting up the symmetry group for a 
 face centered cubic supercell.


 Subroutine GETGRP returns: Found 48 space group operations
 (whereof 48 operations were pure point group operations)
 out of a pool of 48 trial point group operations.


The magnetic configuration has the point symmetry O_h .


 Subroutine INISYM returns: Found 48 space group operations
 (whereof 48 operations are pure point group operations),
 and found    64 'primitive' translations

 
 
 KPOINTS: Zr 15x15x15                             

Automatic generation of k-mesh.
Space group operators:
 irot       det(A)        alpha          n_x          n_y          n_z        tau_x        tau_y        tau_z
    1     1.000000     0.000000     1.000000     0.000000     0.000000     0.000000     0.000000     0.000000
    2    -1.000000     0.000000     1.000000     0.000000     0.000000     0.000000     0.000000     0.000000
    3     1.000000   120.000000    -0.577350    -0.577350    -0.577350     0.000000     0.000000     0.000000
    4    -1.000000   120.000000    -0.577350    -0.577350    -0.577350     0.000000     0.000000     0.000000
    5     1.000000   120.000000     0.577350     0.577350     0.577350     0.000000     0.000000     0.000000
    6    -1.000000   120.000000     0.577350     0.577350     0.577350     0.000000     0.000000     0.000000
    7     1.000000    90.000000     0.000000     0.000000    -1.000000     0.000000     0.000000     0.000000
    8    -1.000000    90.000000     0.000000     0.000000    -1.000000     0.000000     0.000000     0.000000
    9     1.000000   180.000000     0.000000     0.707107     0.707107     0.000000     0.000000     0.000000
   10    -1.000000   180.000000     0.000000     0.707107     0.707107     0.000000     0.000000     0.000000
   11     1.000000    90.000000     0.000000     1.000000     0.000000     0.000000     0.000000     0.000000
   12    -1.000000    90.000000     0.000000     1.000000     0.000000     0.000000     0.000000     0.000000
   13     1.000000   179.999999     0.000000     0.000000     1.000000     0.000000     0.000000     0.000000
   14    -1.000000   179.999999     0.000000     0.000000     1.000000     0.000000     0.000000     0.000000
   15     1.000000   120.000000    -0.577350     0.577350     0.577350     0.000000     0.000000     0.000000
   16    -1.000000   120.000000    -0.577350     0.577350     0.577350     0.000000     0.000000     0.000000
   17     1.000000   120.000000    -0.577350     0.577350    -0.577350     0.000000     0.000000     0.000000
   18    -1.000000   120.000000    -0.577350     0.577350    -0.577350     0.000000     0.000000     0.000000
   19     1.000000    90.000000     0.000000     0.000000     1.000000     0.000000     0.000000     0.000000
   20    -1.000000    90.000000     0.000000     0.000000     1.000000     0.000000     0.000000     0.000000
   21     1.000000    90.000000    -1.000000     0.000000     0.000000     0.000000     0.000000     0.000000
   22    -1.000000    90.000000    -1.000000     0.000000     0.000000     0.000000     0.000000     0.000000
   23     1.000000   180.000000     0.707107     0.000000     0.707107     0.000000     0.000000     0.000000
   24    -1.000000   180.000000     0.707107     0.000000     0.707107     0.000000     0.000000     0.000000
   25     1.000000   120.000000     0.577350    -0.577350     0.577350     0.000000     0.000000     0.000000
   26    -1.000000   120.000000     0.577350    -0.577350     0.577350     0.000000     0.000000     0.000000
   27     1.000000   120.000000    -0.577350    -0.577350     0.577350     0.000000     0.000000     0.000000
   28    -1.000000   120.000000    -0.577350    -0.577350     0.577350     0.000000     0.000000     0.000000
   29     1.000000   180.000000     1.000000     0.000000     0.000000     0.000000     0.000000     0.000000
   30    -1.000000   180.000000     1.000000     0.000000     0.000000     0.000000     0.000000     0.000000
   31     1.000000    90.000000     0.000000    -1.000000     0.000000     0.000000     0.000000     0.000000
   32    -1.000000    90.000000     0.000000    -1.000000     0.000000     0.000000     0.000000     0.000000
   33     1.000000   180.000000     0.707107     0.707107     0.000000     0.000000     0.000000     0.000000
   34    -1.000000   180.000000     0.707107     0.707107     0.000000     0.000000     0.000000     0.000000
   35     1.000000    90.000000     1.000000     0.000000     0.000000     0.000000     0.000000     0.000000
   36    -1.000000    90.000000     1.000000     0.000000     0.000000     0.000000     0.000000     0.000000
   37     1.000000   120.000000     0.577350    -0.577350    -0.577350     0.000000     0.000000     0.000000
   38    -1.000000   120.000000     0.577350    -0.577350    -0.577350     0.000000     0.000000     0.000000
   39     1.000000   180.000000     0.000000     1.000000     0.000000     0.000000     0.000000     0.000000
   40    -1.000000   180.000000     0.000000     1.000000     0.000000     0.000000     0.000000     0.000000
   41     1.000000   120.000000     0.577350     0.577350    -0.577350     0.000000     0.000000     0.000000
   42    -1.000000   120.000000     0.577350     0.577350    -0.577350     0.000000     0.000000     0.000000
   43     1.000000   180.000000     0.000000    -0.707107     0.707107     0.000000     0.000000     0.000000
   44    -1.000000   180.000000     0.000000    -0.707107     0.707107     0.000000     0.000000     0.000000
   45     1.000000   180.000000     0.707107    -0.707107     0.000000     0.000000     0.000000     0.000000
   46    -1.000000   180.000000     0.707107    -0.707107     0.000000     0.000000     0.000000     0.000000
   47     1.000000   180.000000     0.707107     0.000000    -0.707107     0.000000     0.000000     0.000000
   48    -1.000000   180.000000     0.707107     0.000000    -0.707107     0.000000     0.000000     0.000000
 
 Subroutine IBZKPT returns following result:
 ===========================================
 
 Found      4 irreducible k-points:
 
 Following reciprocal coordinates:
            Coordinates               Weight
  0.000000  0.000000  0.000000      1.000000
  0.333333  0.000000  0.000000      8.000000
  0.333333  0.333333  0.000000      6.000000
 -0.333333  0.333333  0.000000     12.000000
 
 Following cartesian coordinates:
            Coordinates               Weight
  0.000000  0.000000  0.000000      1.000000
 -0.022623  0.022623  0.022623      8.000000
  0.000000  0.000000  0.045245      6.000000
  0.045245 -0.045245  0.000000     12.000000
 
 
 Subroutine IBZKPT_HF returns following result:
 ==============================================
 
 Found     27 k-points in 1st BZ
 the following     27 k-points will be used (e.g. in the exchange kernel)
 Following reciprocal coordinates:   # in IRBZ
  0.000000  0.000000  0.000000    0.03703704   1 t-inv F
  0.333333  0.000000  0.000000    0.03703704   2 t-inv F
  0.333333  0.333333  0.000000    0.03703704   3 t-inv F
 -0.333333  0.333333  0.000000    0.03703704   4 t-inv F
 -0.333333  0.000000  0.000000    0.03703704   2 t-inv F
  0.000000  0.333333  0.000000    0.03703704   2 t-inv F
  0.000000 -0.333333  0.000000    0.03703704   2 t-inv F
  0.000000  0.000000  0.333333    0.03703704   2 t-inv F
  0.000000  0.000000 -0.333333    0.03703704   2 t-inv F
  0.333333  0.333333  0.333333    0.03703704   2 t-inv F
 -0.333333 -0.333333 -0.333333    0.03703704   2 t-inv F
 -0.333333 -0.333333  0.000000    0.03703704   3 t-inv F
  0.000000  0.333333  0.333333    0.03703704   3 t-inv F
  0.000000 -0.333333 -0.333333    0.03703704   3 t-inv F
  0.333333  0.000000  0.333333    0.03703704   3 t-inv F
 -0.333333  0.000000 -0.333333    0.03703704   3 t-inv F
  0.333333 -0.333333  0.000000    0.03703704   4 t-inv F
  0.000000 -0.333333  0.333333    0.03703704   4 t-inv F
  0.000000  0.333333 -0.333333    0.03703704   4 t-inv F
  0.333333  0.000000 -0.333333    0.03703704   4 t-inv F
 -0.333333  0.000000  0.333333    0.03703704   4 t-inv F
  0.333333  0.333333  0.666667    0.03703704   4 t-inv F
 -0.333333 -0.333333 -0.666667    0.03703704   4 t-inv F
 -0.333333 -0.666667 -0.333333    0.03703704   4 t-inv F
  0.333333  0.666667  0.333333    0.03703704   4 t-inv F
 -0.666667 -0.333333 -0.333333    0.03703704   4 t-inv F
  0.666667  0.333333  0.333333    0.03703704   4 t-inv F


--------------------------------------------------------------------------------------------------------




 Dimension of arrays:
   k-points           NKPTS =      4   k-points in BZ     NKDIM =      4   number of bands    NBANDS=    646
   number of dos      NEDOS =    301   number of ions     NIONS =     64
   non local maximal  LDIM  =      6   non local SUM 2l+1 LMDIM =     18
   total plane-waves  NPLWV = 343000
   max r-space proj   IRMAX =   5407   max aug-charges    IRDMAX=   9668
   dimension x,y,z NGX =    70 NGY =   70 NGZ =   70
   dimension x,y,z NGXF=   140 NGYF=  140 NGZF=  140
   support grid    NGXF=   140 NGYF=  140 NGZF=  140
   ions per type =              64
 NGX,Y,Z   is equivalent  to a cutoff of  11.17, 11.17, 11.17 a.u.
 NGXF,Y,Z  is equivalent  to a cutoff of  22.34, 22.34, 22.34 a.u.


 I would recommend the setting:
   dimension x,y,z NGX =    65 NGY =   65 NGZ =   65
 SYSTEM =  phonon of Zr bcc - omiga                
 POSCAR =  Supercell by Yi Wang                    

 Startparameter for this run:
   NWRITE =      0    write-flag & timer
   PREC   = a         normal or accurate (medium, high low for compatibility)
   ISTART =      0    job   : 0-new  1-cont  2-samecut
   ICHARG =      2    charge: 1-file 2-atom 10-const
   ISPIN  =      2    spin polarized calculation?
   LNONCOLLINEAR =      F non collinear calculations
   LSORBIT =      F    spin-orbit coupling
   INIWAV =      1    electr: 0-lowe 1-rand  2-diag
   LASPH  =      F    aspherical Exc in radial PAW
   METAGGA=      F    non-selfconsistent MetaGGA calc.

 Electronic Relaxation 1
   ENCUT  =  367.9 eV  27.04 Ry    5.20 a.u.  16.30 16.30 16.30*2*pi/ulx,y,z
   ENINI  =  367.9     initial cutoff
   ENAUG  =  703.4 eV  augmentation charge cutoff
   NELM   =     60;   NELMIN=  2; NELMDL= -5     # of ELM steps 
   EDIFF  = 0.1E-05   stopping-criterion for ELM
   LREAL  =      T    real-space projection
   NLSPLINE    = F    spline interpolate recip. space projectors
   LCOMPAT=      F    compatible to vasp.4.4
   GGA_COMPAT  = T    GGA compatible to vasp.4.4-vasp.4.6
   LMAXPAW     = -100 max onsite density
   LMAXMIX     =    2 max onsite mixed and CHGCAR
   VOSKOWN=      0    Vosko Wilk Nusair interpolation
   ROPT   =   -0.00025
 Ionic relaxation
   EDIFFG = 0.1E-04   stopping-criterion for IOM
   NSW    =    805    number of steps for IOM
   NBLOCK =      1;   KBLOCK =      1    inner block; outer block 
   IBRION =      6    ionic relax: 0-MD 1-quasi-New 2-CG
   NFREE  =      4    steps in history (QN), initial steepest desc. (CG)
   ISIF   =      2    stress and relaxation
   IWAVPR =     11    prediction:  0-non 1-charg 2-wave 3-comb
   ISYM   =      2    0-nonsym 1-usesym 2-fastsym
   LCORR  =      T    Harris-Foulkes like correction to forces

   POTIM  = 0.5000    time-step for ionic-motion
   TEIN   =    0.0    initial temperature
   TEBEG  =    0.0;   TEEND  =   0.0 temperature during run
   SMASS  =  -3.00    Nose mass-parameter (am)
   estimated Nose-frequenzy (Omega)   =  0.10E-29 period in steps =****** mass=  -0.248E-26a.u.
   SCALEE = 1.0000    scale energy and forces
   NPACO  =    256;   APACO  = 16.0  distance and # of slots for P.C.
   PSTRESS=    0.0 pullay stress

  Mass of Ions in am
   POMASS =  58.69
  Ionic Valenz
   ZVAL   =  16.00
  Atomic Wigner-Seitz radii
   RWIGS  =  -1.00
  virtual crystal weights 
   VCA    =   1.00
   NELECT =    1024.0000    total number of electrons
   NUPDOWN=      -1.0000    fix difference up-down

 DOS related values:
   EMIN   =  10.00;   EMAX   =-10.00  energy-range for DOS
   EFERMI =   0.00
   ISMEAR =     1;   SIGMA  =   0.20  broadening in eV -4-tet -1-fermi 0-gaus

 Electronic relaxation 2 (details)
   IALGO  =     38    algorithm
   LDIAG  =      T    sub-space diagonalisation (order eigenvalues)
   LSUBROT=      F    optimize rotation matrix (better conditioning)
   TURBO    =      0    0=normal 1=particle mesh
   IRESTART =      0    0=no restart 2=restart with 2 vectors
   NREBOOT  =      0    no. of reboots
   NMIN     =      0    reboot dimension
   EREF     =   0.00    reference energy to select bands
   IMIX   =      4    mixing-type and parameters
     AMIX     =   0.40;   BMIX     =  1.00
     AMIX_MAG =   1.60;   BMIX_MAG =  1.00
     AMIN     =   0.10
     WC   =   100.;   INIMIX=   1;  MIXPRE=   1;  MAXMIX= -45

 Intra band minimization:
   WEIMIN = 0.0010     energy-eigenvalue tresh-hold
   EBREAK =  0.39E-09  absolut break condition
   DEPER  =   0.30     relativ break condition  

   TIME   =   0.40     timestep for ELM

  volume/ion in A,a.u.               =      12.50        84.33
  Fermi-wavevector in a.u.,A,eV,Ry     =   1.777704  3.359373 42.997552  3.160231
  Thomas-Fermi vector in A             =   2.843044
 
 Write flags
   LWAVE  =      T    write WAVECAR
   LCHARG =      T    write CHGCAR
   LVTOT  =      F    write LOCPOT, total local potential
   LVHAR  =      F    write LOCPOT, Hartree potential only
   LELF   =      F    write electronic localiz. function (ELF)
   LORBIT =      0    0 simple, 1 ext, 2 COOP (PROOUT)


 Dipole corrections
   LMONO  =      F    monopole corrections only (constant potential shift)
   LDIPOL =      F    correct potential (dipole corrections)
   IDIPOL =      0    1-x, 2-y, 3-z, 4-all directions 
   EPSILON=  1.0000000 bulk dielectric constant

 Exchange correlation treatment:
   GGA     =    --    GGA type
   LEXCH   =     8    internal setting for exchange type
   VOSKOWN=      0    Vosko Wilk Nusair interpolation
   LHFCALC =     F    Hartree Fock is set to
   LHFONE  =     F    Hartree Fock one center treatment
   AEXX    =    0.0000 exact exchange contribution

 Linear response parameters
   LEPSILON=     F    determine dielectric tensor
   LRPA    =     F    only Hartree local field effects (RPA)
   LNABLA  =     F    use nabla operator in PAW spheres
   LVEL    =     F    velocity operator in full k-point grid
   LINTERFAST=   F  fast interpolation
   KINTER  =     0    interpolate to denser k-point grid
   CSHIFT  =0.1000    complex shift for real part using Kramers Kronig
   OMEGAMAX=  -1.0    maximum frequency
   DEG_THRESHOLD= 0.2000000E-02 threshold for treating states as degnerate
   RTIME   =    0.100 relaxation time in fs

 Orbital magnetization related:
   ORBITALMAG=     F  switch on orbital magnetization
   LCHIMAG   =     F  perturbation theory with respect to B field
   DQ        =  0.001000  dq finite difference perturbation B field



--------------------------------------------------------------------------------------------------------


 finite differences with symmetry
 charge density and potential will be updated during run
 spin polarized calculation
 Variant of blocked Davidson
 Davidson routine will perform the subspace rotation
 perform sub-space diagonalisation
    after iterative eigenvector-optimisation
 modified Broyden-mixing scheme, WC =      100.0
 initial mixing is a Kerker type mixing with AMIX =  0.4000 and BMIX =      1.0000
 Hartree-type preconditioning will be used
 using additional bands          134
 real space projection scheme for non local part
 use partial core corrections
 calculate Harris-corrections to forces 
   (improved forces if not selfconsistent)
 use gradient corrections 
 use of overlap-Matrix (Vanderbilt PP)
 Methfessel and Paxton  Order N= 1 SIGMA  =   0.20


--------------------------------------------------------------------------------------------------------


  energy-cutoff  :      367.94
  volume of cell :      799.74
      direct lattice vectors                 reciprocal lattice vectors
     0.000000000  7.367250000  7.367250000    -0.067867929  0.067867929  0.067867929
     7.367250000  0.000000000  7.367250000     0.067867929 -0.067867929  0.067867929
     7.367250000  7.367250000  0.000000000     0.067867929  0.067867929 -0.067867929

  length of vectors
    10.418864867 10.418864867 10.418864867     0.117550701  0.117550701  0.117550701


 
 k-points in units of 2pi/SCALE and weight: Zr 15x15x15                             
   0.00000000  0.00000000  0.00000000       0.037
  -0.02262264  0.02262264  0.02262264       0.296
   0.00000000  0.00000000  0.04524529       0.222
   0.04524529 -0.04524529  0.00000000       0.444
 
 k-points in reciprocal lattice and weights: Zr 15x15x15                             
   0.00000000  0.00000000  0.00000000       0.037
   0.33333333  0.00000000  0.00000000       0.296
   0.33333333  0.33333333  0.00000000       0.222
  -0.33333333  0.33333333  0.00000000       0.444
 
 position of ions in fractional coordinates (direct lattice) 
   0.00000000  0.00000000  0.00000000
   0.00000000  0.00000000  0.25000000
   0.00000000  0.00000000  0.50000000
   0.00000000  0.00000000  0.75000000
   0.00000000  0.25000000  0.00000000
   0.00000000  0.25000000  0.25000000
   0.00000000  0.25000000  0.50000000
   0.00000000  0.25000000  0.75000000
   0.00000000  0.50000000  0.00000000
   0.00000000  0.50000000  0.25000000
   0.00000000  0.50000000  0.50000000
   0.00000000  0.50000000  0.75000000
   0.00000000  0.75000000  0.00000000
   0.00000000  0.75000000  0.25000000
   0.00000000  0.75000000  0.50000000
   0.00000000  0.75000000  0.75000000
   0.25000000  0.00000000  0.00000000
   0.25000000  0.00000000  0.25000000
   0.25000000  0.00000000  0.50000000
   0.25000000  0.00000000  0.75000000
   0.25000000  0.25000000  0.00000000
   0.25000000  0.25000000  0.25000000
   0.25000000  0.25000000  0.50000000
   0.25000000  0.25000000  0.75000000
   0.25000000  0.50000000  0.00000000
   0.25000000  0.50000000  0.25000000
   0.25000000  0.50000000  0.50000000
   0.25000000  0.50000000  0.75000000
   0.25000000  0.75000000  0.00000000
   0.25000000  0.75000000  0.25000000
   0.25000000  0.75000000  0.50000000
   0.25000000  0.75000000  0.75000000
   0.50000000  0.00000000  0.00000000
   0.50000000  0.00000000  0.25000000
   0.50000000  0.00000000  0.50000000
   0.50000000  0.00000000  0.75000000
   0.50000000  0.25000000  0.00000000
   0.50000000  0.25000000  0.25000000
   0.50000000  0.25000000  0.50000000
   0.50000000  0.25000000  0.75000000
   0.50000000  0.50000000  0.00000000
   0.50000000  0.50000000  0.25000000
   0.50000000  0.50000000  0.50000000
   0.50000000  0.50000000  0.75000000
   0.50000000  0.75000000  0.00000000
   0.50000000  0.75000000  0.25000000
   0.50000000  0.75000000  0.50000000
   0.50000000  0.75000000  0.75000000
   0.75000000  0.00000000  0.00000000
   0.75000000  0.00000000  0.25000000
   0.75000000  0.00000000  0.50000000
   0.75000000  0.00000000  0.75000000
   0.75000000  0.25000000  0.00000000
   0.75000000  0.25000000  0.25000000
   0.75000000  0.25000000  0.50000000
   0.75000000  0.25000000  0.75000000
   0.75000000  0.50000000  0.00000000
   0.75000000  0.50000000  0.25000000
   0.75000000  0.50000000  0.50000000
   0.75000000  0.50000000  0.75000000
   0.75000000  0.75000000  0.00000000
   0.75000000  0.75000000  0.25000000
   0.75000000  0.75000000  0.50000000
   0.75000000  0.75000000  0.75000000
 
 position of ions in cartesian coordinates  (Angst):
   0.00000000  0.00000000  0.00000000
   1.84181250  1.84181250  0.00000000
   3.68362500  3.68362500  0.00000000
   5.52543750  5.52543750  0.00000000
   1.84181250  0.00000000  1.84181250
   3.68362500  1.84181250  1.84181250
   5.52543750  3.68362500  1.84181250
   7.36725000  5.52543750  1.84181250
   3.68362500  0.00000000  3.68362500
   5.52543750  1.84181250  3.68362500
   7.36725000  3.68362500  3.68362500
   9.20906250  5.52543750  3.68362500
   5.52543750  0.00000000  5.52543750
   7.36725000  1.84181250  5.52543750
   9.20906250  3.68362500  5.52543750
  11.05087500  5.52543750  5.52543750
   0.00000000  1.84181250  1.84181250
   1.84181250  3.68362500  1.84181250
   3.68362500  5.52543750  1.84181250
   5.52543750  7.36725000  1.84181250
   1.84181250  1.84181250  3.68362500
   3.68362500  3.68362500  3.68362500
   5.52543750  5.52543750  3.68362500
   7.36725000  7.36725000  3.68362500
   3.68362500  1.84181250  5.52543750
   5.52543750  3.68362500  5.52543750
   7.36725000  5.52543750  5.52543750
   9.20906250  7.36725000  5.52543750
   5.52543750  1.84181250  7.36725000
   7.36725000  3.68362500  7.36725000
   9.20906250  5.52543750  7.36725000
  11.05087500  7.36725000  7.36725000
   0.00000000  3.68362500  3.68362500
   1.84181250  5.52543750  3.68362500
   3.68362500  7.36725000  3.68362500
   5.52543750  9.20906250  3.68362500
   1.84181250  3.68362500  5.52543750
   3.68362500  5.52543750  5.52543750
   5.52543750  7.36725000  5.52543750
   7.36725000  9.20906250  5.52543750
   3.68362500  3.68362500  7.36725000
   5.52543750  5.52543750  7.36725000
   7.36725000  7.36725000  7.36725000
   9.20906250  9.20906250  7.36725000
   5.52543750  3.68362500  9.20906250
   7.36725000  5.52543750  9.20906250
   9.20906250  7.36725000  9.20906250
  11.05087500  9.20906250  9.20906250
   0.00000000  5.52543750  5.52543750
   1.84181250  7.36725000  5.52543750
   3.68362500  9.20906250  5.52543750
   5.52543750 11.05087500  5.52543750
   1.84181250  5.52543750  7.36725000
   3.68362500  7.36725000  7.36725000
   5.52543750  9.20906250  7.36725000
   7.36725000 11.05087500  7.36725000
   3.68362500  5.52543750  9.20906250
   5.52543750  7.36725000  9.20906250
   7.36725000  9.20906250  9.20906250
   9.20906250 11.05087500  9.20906250
   5.52543750  5.52543750 11.05087500
   7.36725000  7.36725000 11.05087500
   9.20906250  9.20906250 11.05087500
  11.05087500 11.05087500 11.05087500
 


--------------------------------------------------------------------------------------------------------


 k-point  1 :   0.0000 0.0000 0.0000  plane waves:   12891
 k-point  2 :   0.3333 0.0000 0.0000  plane waves:   12854
 k-point  3 :   0.3333 0.3333 0.0000  plane waves:   12803
 k-point  4 :  -0.3333 0.3333 0.0000  plane waves:   12812

 maximum and minimum number of plane-waves per node :     12891    12803

 maximum number of plane-waves:     12891
 maximum index in each direction: 
   IXMAX=   16   IYMAX=   16   IZMAX=   16
   IXMIN=  -16   IYMIN=  -16   IZMIN=  -16

 NGX is ok and might be reduce to  66
 NGY is ok and might be reduce to  66
 NGZ is ok and might be reduce to  66

 serial   3D FFT for wavefunctions
 parallel 3D FFT for charge:
    minimum data exchange during FFTs selected (reduces bandwidth)


 total amount of memory used by VASP on root node  1573566. kBytes
========================================================================

   base      :      30000. kBytes
   nonlr-proj:      58329. kBytes
   fftplans  :      94700. kBytes
   grid      :     227360. kBytes
   one-center:       1990. kBytes
   wavefun   :    1161187. kBytes
 
     INWAV:  cpu time    0.0000: real time    0.0000
 Broyden mixing: mesh for mixing (old mesh)
   NGX = 33   NGY = 33   NGZ = 33
  (NGX  =140   NGY  =140   NGZ  =140)
  gives a total of  35937 points

 initial charge density was supplied:
 charge density of overlapping atoms calculated
 number of electron    1024.0000000 magnetization      64.0000000
 keeping initial charge density in first step


--------------------------------------------------------------------------------------------------------


 Maximum index for non-local projection operator         5233
 Maximum index for augmentation-charges         9189 (set IRDMAX)


--------------------------------------------------------------------------------------------------------


 First call to EWALD:  gamma=   0.191
 Maximum number of real-space cells 3x 3x 3
 Maximum number of reciprocal cells 3x 3x 3

 FEWALD executed in parallel
    FEWALD:  cpu time    0.0220: real time    0.0222


----------------------------------------- Iteration    1(   1)  ---------------------------------------


    POTLOK:  cpu time    3.0825: real time    3.0801
    SETDIJ:  cpu time    0.4309: real time    0.4305
     EDDAV:  cpu time  614.0876: real time  613.5863
       DOS:  cpu time    0.0130: real time    0.0137
    --------------------------------------------
      LOOP:  cpu time  617.6151: real time  617.1118

 eigenvalue-minimisations  : 12176
 total energy-change (2. order) : 0.1346898E+05  (-0.5582294E+05)
 number of electron    1024.0000000 magnetization      64.0000000
 augmentation part     1024.0000000 magnetization      64.0000000

 Free energy of the ion-electron system (eV)
  ---------------------------------------------------
  alpha Z        PSCENC =      8628.10280496
  Ewald energy   TEWEN  =   -146823.96742896
  -Hartree energ DENC   =    -65868.69495599
  -exchange      EXHF   =         0.00000000
  -V(xc)+E(xc)   XCENC  =      5689.77156658
  PAW double counting   =    172361.15642774  -181272.45834873
  entropy T*S    EENTRO =        -0.00781387
  eigenvalues    EBANDS =     -3258.21624206
  atomic energy  EATOM  =    224013.29143063
  Solvation  Ediel_sol  =         0.00000000
  ---------------------------------------------------
  free energy    TOTEN  =     13468.97744031 eV

  energy without entropy =    13468.98525418  energy(sigma->0) =    13468.98004493


--------------------------------------------------------------------------------------------------------




----------------------------------------- Iteration    1(   2)  ---------------------------------------


     EDDAV:  cpu time  541.4157: real time  540.9740
       DOS:  cpu time    0.0140: real time    0.0139
    --------------------------------------------
      LOOP:  cpu time  541.4307: real time  540.9886

 eigenvalue-minimisations  : 10336
 total energy-change (2. order) :-0.1276188E+05  (-0.1237735E+05)
 number of electron    1024.0000000 magnetization      64.0000000
 augmentation part     1024.0000000 magnetization      64.0000000

 Free energy of the ion-electron system (eV)
  ---------------------------------------------------
  alpha Z        PSCENC =      8628.10280496
  Ewald energy   TEWEN  =   -146823.96742896
  -Hartree energ DENC   =    -65868.69495599
  -exchange      EXHF   =         0.00000000
  -V(xc)+E(xc)   XCENC  =      5689.77156658
  PAW double counting   =    172361.15642774  -181272.45834873
  entropy T*S    EENTRO =         0.00010946
  eigenvalues    EBANDS =    -16020.10558523
  atomic energy  EATOM  =    224013.29143063
  Solvation  Ediel_sol  =         0.00000000
  ---------------------------------------------------
  free energy    TOTEN  =       707.09602047 eV

  energy without entropy =      707.09591101  energy(sigma->0) =      707.09598398


--------------------------------------------------------------------------------------------------------




----------------------------------------- Iteration    1(   3)  ---------------------------------------


     EDDAV:  cpu time  558.3621: real time  557.9066
       DOS:  cpu time    0.0160: real time    0.0156
    --------------------------------------------
      LOOP:  cpu time  558.3781: real time  557.9237

 eigenvalue-minimisations  : 10726
 total energy-change (2. order) :-0.1073677E+04  (-0.8837270E+03)
 number of electron    1024.0000000 magnetization      64.0000000
 augmentation part     1024.0000000 magnetization      64.0000000

 Free energy of the ion-electron system (eV)
  ---------------------------------------------------
  alpha Z        PSCENC =      8628.10280496
  Ewald energy   TEWEN  =   -146823.96742896
  -Hartree energ DENC   =    -65868.69495599
  -exchange      EXHF   =         0.00000000
  -V(xc)+E(xc)   XCENC  =      5689.77156658
  PAW double counting   =    172361.15642774  -181272.45834873
  entropy T*S    EENTRO =         0.19030903
  eigenvalues    EBANDS =    -17093.97264084
  atomic energy  EATOM  =    224013.29143063
  Solvation  Ediel_sol  =         0.00000000
  ---------------------------------------------------
  free energy    TOTEN  =      -366.58083557 eV

  energy without entropy =     -366.77114460  energy(sigma->0) =     -366.64427192


--------------------------------------------------------------------------------------------------------




----------------------------------------- Iteration    1(   4)  ---------------------------------------


     EDDAV:  cpu time  574.4107: real time  573.9424
       DOS:  cpu time    0.0150: real time    0.0156
    --------------------------------------------
      LOOP:  cpu time  574.4257: real time  573.9586

 eigenvalue-minimisations  : 11136
 total energy-change (2. order) :-0.5662681E+02  (-0.5517410E+02)
 number of electron    1024.0000000 magnetization      64.0000000
 augmentation part     1024.0000000 magnetization      64.0000000

 Free energy of the ion-electron system (eV)
  ---------------------------------------------------
  alpha Z        PSCENC =      8628.10280496
  Ewald energy   TEWEN  =   -146823.96742896
  -Hartree energ DENC   =    -65868.69495599
  -exchange      EXHF   =         0.00000000
  -V(xc)+E(xc)   XCENC  =      5689.77156658
  PAW double counting   =    172361.15642774  -181272.45834873
  entropy T*S    EENTRO =         0.17944696
  eigenvalues    EBANDS =    -17150.58858590
  atomic energy  EATOM  =    224013.29143063
  Solvation  Ediel_sol  =         0.00000000
  ---------------------------------------------------
  free energy    TOTEN  =      -423.20764270 eV

  energy without entropy =     -423.38708966  energy(sigma->0) =     -423.26745835


--------------------------------------------------------------------------------------------------------




----------------------------------------- Iteration    1(   5)  ---------------------------------------


     EDDAV:  cpu time  553.0979: real time  552.6471
       DOS:  cpu time    0.0160: real time    0.0157
    CHARGE:  cpu time   30.1984: real time   30.1737
    MIXING:  cpu time    0.0630: real time    0.0624
    --------------------------------------------
      LOOP:  cpu time  583.3763: real time  582.8995

 eigenvalue-minimisations  : 10944
 total energy-change (2. order) :-0.8648205E+00  (-0.8641177E+00)
 number of electron    1024.0004232 magnetization      58.6506727
 augmentation part      572.6513919 magnetization      46.8264474

 Broyden mixing:
  rms(total) = 0.68081E+01    rms(broyden)= 0.68055E+01
  rms(prec ) = 0.91767E+01
  weight for this iteration     100.00

 Free energy of the ion-electron system (eV)
  ---------------------------------------------------
  alpha Z        PSCENC =      8628.10280496
  Ewald energy   TEWEN  =   -146823.96742896
  -Hartree energ DENC   =    -65868.69495599
  -exchange      EXHF   =         0.00000000
  -V(xc)+E(xc)   XCENC  =      5689.77156658
  PAW double counting   =    172361.15642774  -181272.45834873
  entropy T*S    EENTRO =         0.17956165
  eigenvalues    EBANDS =    -17151.45352111
  atomic energy  EATOM  =    224013.29143063
  Solvation  Ediel_sol  =         0.00000000
  ---------------------------------------------------
  free energy    TOTEN  =      -424.07246322 eV

  energy without entropy =     -424.25202487  energy(sigma->0) =     -424.13231710


--------------------------------------------------------------------------------------------------------




----------------------------------------- Iteration    1(   6)  ---------------------------------------


    POTLOK:  cpu time    3.0715: real time    3.0692
    SETDIJ:  cpu time    0.4259: real time    0.4255
     EDDAV:  cpu time  547.5438: real time  547.0988
       DOS:  cpu time    0.0140: real time    0.0141
    CHARGE:  cpu time   28.3617: real time   28.3391
    MIXING:  cpu time    0.0650: real time    0.0652
    --------------------------------------------
      LOOP:  cpu time  579.4819: real time  579.0124

 eigenvalue-minimisations  : 10812
 total energy-change (2. order) : 0.2366672E+02  (-0.6747822E+02)
 number of electron    1024.0004728 magnetization      52.5401691
 augmentation part      634.7522437 magnetization      46.9201356

 Broyden mixing:
  rms(total) = 0.57675E+01    rms(broyden)= 0.57670E+01
  rms(prec ) = 0.72447E+01
  weight for this iteration     100.00

 eigenvalues of (default mixing * dielectric matrix)
  average eigenvalue GAMMA=   0.5205
  0.5205

 Free energy of the ion-electron system (eV)
  ---------------------------------------------------
  alpha Z        PSCENC =      8628.10280496
  Ewald energy   TEWEN  =   -146823.96742896
  -Hartree energ DENC   =    -62507.28144017
  -exchange      EXHF   =         0.00000000
  -V(xc)+E(xc)   XCENC  =      5563.02597497
  PAW double counting   =    167124.73638695  -175704.20366114
  entropy T*S    EENTRO =        -0.50444123
  eigenvalues    EBANDS =    -20693.60536561
  atomic energy  EATOM  =    224013.29143063
  Solvation  Ediel_sol  =         0.00000000
  ---------------------------------------------------
  free energy    TOTEN  =      -400.40573962 eV

  energy without entropy =     -399.90129838  energy(sigma->0) =     -400.23759254


--------------------------------------------------------------------------------------------------------




----------------------------------------- Iteration    1(   7)  ---------------------------------------


    POTLOK:  cpu time    3.0915: real time    3.0893
    SETDIJ:  cpu time    0.4259: real time    0.4248
     EDDAV:  cpu time  542.2486: real time  541.8080
       DOS:  cpu time    0.0160: real time    0.0156
    CHARGE:  cpu time   29.4495: real time   29.4250
    MIXING:  cpu time    0.0670: real time    0.0675
    --------------------------------------------
      LOOP:  cpu time  575.2995: real time  574.8309

 eigenvalue-minimisations  : 10738
 total energy-change (2. order) : 0.3862104E+02  (-0.1484694E+02)
 number of electron    1024.0004502 magnetization      48.4482044
 augmentation part      606.6335751 magnetization      39.6230007

 Broyden mixing:
  rms(total) = 0.60297E+00    rms(broyden)= 0.60233E+00
  rms(prec ) = 0.70232E+00
  weight for this iteration     100.00

 eigenvalues of (default mixing * dielectric matrix)
  average eigenvalue GAMMA=   0.6904
  0.8274  0.5534

 Free energy of the ion-electron system (eV)
  ---------------------------------------------------
  alpha Z        PSCENC =      8628.10280496
  Ewald energy   TEWEN  =   -146823.96742896
  -Hartree energ DENC   =    -63834.59513642
  -exchange      EXHF   =         0.00000000
  -V(xc)+E(xc)   XCENC  =      5612.49619456
  PAW double counting   =    169838.86064221  -178703.65031460
  entropy T*S    EENTRO =        -0.06345657
  eigenvalues    EBANDS =    -19092.25943885
  atomic energy  EATOM  =    224013.29143063
  Solvation  Ediel_sol  =         0.00000000
  ---------------------------------------------------
  free energy    TOTEN  =      -361.78470305 eV

  energy without entropy =     -361.72124648  energy(sigma->0) =     -361.76355086


--------------------------------------------------------------------------------------------------------




----------------------------------------- Iteration    1(   8)  ---------------------------------------


    POTLOK:  cpu time    3.0475: real time    3.0455
    SETDIJ:  cpu time    0.4219: real time    0.4219
     EDDAV:  cpu time  545.4031: real time  544.9591
       DOS:  cpu time    0.0160: real time    0.0153
    CHARGE:  cpu time   28.8656: real time   28.8421
    MIXING:  cpu time    0.0700: real time    0.0703
    --------------------------------------------
      LOOP:  cpu time  577.8252: real time  577.3550

 eigenvalue-minimisations  : 10838
 total energy-change (2. order) :-0.2110079E+00  (-0.1424249E+00)
 number of electron    1024.0004498 magnetization      45.0545009
 augmentation part      606.0956207 magnetization      37.6114676

 Broyden mixing:
  rms(total) = 0.32457E+00    rms(broyden)= 0.32451E+00
  rms(prec ) = 0.42454E+00
  weight for this iteration     100.00

 eigenvalues of (default mixing * dielectric matrix)
  average eigenvalue GAMMA=   1.1022
  0.5622  0.8555  1.8889

 Free energy of the ion-electron system (eV)
  ---------------------------------------------------
  alpha Z        PSCENC =      8628.10280496
  Ewald energy   TEWEN  =   -146823.96742896
  -Hartree energ DENC   =    -63737.65966652
  -exchange      EXHF   =         0.00000000
  -V(xc)+E(xc)   XCENC  =      5610.06288708
  PAW double counting   =    170204.88949700  -179148.80247263
  entropy T*S    EENTRO =        -0.04587030
  eigenvalues    EBANDS =    -19107.86689221
  atomic energy  EATOM  =    224013.29143063
  Solvation  Ediel_sol  =         0.00000000
  ---------------------------------------------------
  free energy    TOTEN  =      -361.99571094 eV

  energy without entropy =     -361.94984064  energy(sigma->0) =     -361.98042084


--------------------------------------------------------------------------------------------------------




----------------------------------------- Iteration    1(   9)  ---------------------------------------


    POTLOK:  cpu time    3.0605: real time    3.0588
    SETDIJ:  cpu time    0.4179: real time    0.4178
     EDDAV:  cpu time  538.2852: real time  537.8479
       DOS:  cpu time    0.0160: real time    0.0156
    CHARGE:  cpu time   27.0729: real time   27.0499
    MIXING:  cpu time    0.0730: real time    0.0731
    --------------------------------------------
      LOOP:  cpu time  568.9265: real time  568.4637

 eigenvalue-minimisations  : 11042
 total energy-change (2. order) : 0.1154735E+00  (-0.3246365E-01)
 number of electron    1024.0004505 magnetization      45.1723801
 augmentation part      606.9566691 magnetization      38.8694016

 Broyden mixing:
  rms(total) = 0.81288E-01    rms(broyden)= 0.81272E-01
  rms(prec ) = 0.84334E-01
  weight for this iteration     100.00

 eigenvalues of (default mixing * dielectric matrix)
  average eigenvalue GAMMA=   1.0783
  2.2234  0.8904  0.5709  0.6287

 Free energy of the ion-electron system (eV)
  ---------------------------------------------------
  alpha Z        PSCENC =      8628.10280496
  Ewald energy   TEWEN  =   -146823.96742896
  -Hartree energ DENC   =    -63576.84619656
  -exchange      EXHF   =         0.00000000
  -V(xc)+E(xc)   XCENC  =      5605.28610510
  PAW double counting   =    170550.20527482  -179569.26308650
  entropy T*S    EENTRO =        -0.05425104
  eigenvalues    EBANDS =    -19188.63488984
  atomic energy  EATOM  =    224013.29143063
  Solvation  Ediel_sol  =         0.00000000
  ---------------------------------------------------
  free energy    TOTEN  =      -361.88023740 eV

  energy without entropy =     -361.82598636  energy(sigma->0) =     -361.86215372


--------------------------------------------------------------------------------------------------------




----------------------------------------- Iteration    1(  10)  ---------------------------------------


    POTLOK:  cpu time    3.0665: real time    3.0637
    SETDIJ:  cpu time    0.4219: real time    0.4217
     EDDAV:  cpu time  556.8383: real time  556.3867
       DOS:  cpu time    0.0150: real time    0.0155
    CHARGE:  cpu time   28.1057: real time   28.0834
    MIXING:  cpu time    0.0770: real time    0.0764
    --------------------------------------------
      LOOP:  cpu time  588.5265: real time  588.0481

 eigenvalue-minimisations  : 11482
 total energy-change (2. order) :-0.6122743E-02  (-0.1548236E-02)
 number of electron    1024.0004504 magnetization      45.6654519
 augmentation part      606.9202638 magnetization      39.2879270

 Broyden mixing:
  rms(total) = 0.37147E-01    rms(broyden)= 0.37136E-01
  rms(prec ) = 0.38909E-01
  weight for this iteration     100.00

 eigenvalues of (default mixing * dielectric matrix)
  average eigenvalue GAMMA=   1.1957
  2.3340  1.4954  0.9625  0.6198  0.5668

 Free energy of the ion-electron system (eV)
  ---------------------------------------------------
  alpha Z        PSCENC =      8628.10280496
  Ewald energy   TEWEN  =   -146823.96742896
  -Hartree energ DENC   =    -63569.76308532
  -exchange      EXHF   =         0.00000000
  -V(xc)+E(xc)   XCENC  =      5605.12441441
  PAW double counting   =    170626.74324735  -179652.31334921
  entropy T*S    EENTRO =        -0.05353720
  eigenvalues    EBANDS =    -19189.05085679
  atomic energy  EATOM  =    224013.29143063
  Solvation  Ediel_sol  =         0.00000000
  ---------------------------------------------------
  free energy    TOTEN  =      -361.88636014 eV

  energy without entropy =     -361.83282294  energy(sigma->0) =     -361.86851441


--------------------------------------------------------------------------------------------------------




----------------------------------------- Iteration    1(  11)  ---------------------------------------


    POTLOK:  cpu time    3.0695: real time    3.0664
    SETDIJ:  cpu time    0.4199: real time    0.4205
     EDDAV:  cpu time  548.3456: real time  547.9001
       DOS:  cpu time    0.0150: real time    0.0156
    CHARGE:  cpu time   30.6733: real time   30.6473
    MIXING:  cpu time    0.0800: real time    0.0802
    --------------------------------------------
      LOOP:  cpu time  582.6044: real time  582.1309

 eigenvalue-minimisations  : 10918
 total energy-change (2. order) :-0.4348717E-02  (-0.9426461E-03)
 number of electron    1024.0004503 magnetization      45.7190773
 augmentation part      606.7985194 magnetization      39.1602035

 Broyden mixing:
  rms(total) = 0.13263E-01    rms(broyden)= 0.13251E-01
  rms(prec ) = 0.16777E-01
  weight for this iteration     100.00

 eigenvalues of (default mixing * dielectric matrix)
  average eigenvalue GAMMA=   1.1853
  2.4329  1.7714  0.9567  0.7532  0.5624  0.6351

 Free energy of the ion-electron system (eV)
  ---------------------------------------------------
  alpha Z        PSCENC =      8628.10280496
  Ewald energy   TEWEN  =   -146823.96742896
  -Hartree energ DENC   =    -63573.28894078
  -exchange      EXHF   =         0.00000000
  -V(xc)+E(xc)   XCENC  =      5605.23377285
  PAW double counting   =    170721.49752616  -179749.33840636
  entropy T*S    EENTRO =        -0.05234776
  eigenvalues    EBANDS =    -19183.36911960
  atomic energy  EATOM  =    224013.29143063
  Solvation  Ediel_sol  =         0.00000000
  ---------------------------------------------------
  free energy    TOTEN  =      -361.89070886 eV

  energy without entropy =     -361.83836110  energy(sigma->0) =     -361.87325961


--------------------------------------------------------------------------------------------------------




----------------------------------------- Iteration    1(  12)  ---------------------------------------


    POTLOK:  cpu time    3.0935: real time    3.0908
    SETDIJ:  cpu time    0.4259: real time    0.4258
     EDDAV:  cpu time  554.2537: real time  553.8026
       DOS:  cpu time    0.0150: real time    0.0149
    CHARGE:  cpu time   30.4594: real time   30.4358
    MIXING:  cpu time    0.0820: real time    0.0820
    --------------------------------------------
      LOOP:  cpu time  588.3296: real time  587.8526

 eigenvalue-minimisations  : 11124
 total energy-change (2. order) : 0.2386147E-04  (-0.9497391E-04)
 number of electron    1024.0004504 magnetization      45.7214442
 augmentation part      606.8577167 magnetization      39.1490086

 Broyden mixing:
  rms(total) = 0.19545E-02    rms(broyden)= 0.19421E-02
  rms(prec ) = 0.20701E-02
  weight for this iteration     100.00

 eigenvalues of (default mixing * dielectric matrix)
  average eigenvalue GAMMA=   1.1760
  2.4622  1.8486  1.0310  0.9489  0.5634  0.6275  0.7502

 Free energy of the ion-electron system (eV)
  ---------------------------------------------------
  alpha Z        PSCENC =      8628.10280496
  Ewald energy   TEWEN  =   -146823.96742896
  -Hartree energ DENC   =    -63570.13647887
  -exchange      EXHF   =         0.00000000
  -V(xc)+E(xc)   XCENC  =      5605.11302552
  PAW double counting   =    170736.52558052  -179763.92039357
  entropy T*S    EENTRO =        -0.05381313
  eigenvalues    EBANDS =    -19186.84541210
  atomic energy  EATOM  =    224013.29143063
  Solvation  Ediel_sol  =         0.00000000
  ---------------------------------------------------
  free energy    TOTEN  =      -361.89068500 eV

  energy without entropy =     -361.83687187  energy(sigma->0) =     -361.87274729


--------------------------------------------------------------------------------------------------------




----------------------------------------- Iteration    1(  13)  ---------------------------------------


    POTLOK:  cpu time    3.0475: real time    3.0448
    SETDIJ:  cpu time    0.4169: real time    0.4175
     EDDAV:  cpu time  559.0410: real time  558.5871
       DOS:  cpu time    0.0160: real time    0.0154
    CHARGE:  cpu time   30.6573: real time   30.6328
    MIXING:  cpu time    0.0860: real time    0.0863
    --------------------------------------------
      LOOP:  cpu time  593.2658: real time  592.7846

 eigenvalue-minimisations  : 10988
 total energy-change (2. order) : 0.4313304E-05  (-0.4361810E-05)
 number of electron    1024.0004504 magnetization      45.7183861
 augmentation part      606.8688590 magnetization      39.1468562

 Broyden mixing:
  rms(total) = 0.18584E-02    rms(broyden)= 0.18581E-02
  rms(prec ) = 0.24208E-02
  weight for this iteration     100.00

 eigenvalues of (default mixing * dielectric matrix)
  average eigenvalue GAMMA=   1.2099
  2.4503  1.9053  1.5962  0.9881  0.5642  0.6229  0.7761  0.7761

 Free energy of the ion-electron system (eV)
  ---------------------------------------------------
  alpha Z        PSCENC =      8628.10280496
  Ewald energy   TEWEN  =   -146823.96742896
  -Hartree energ DENC   =    -63569.97861840
  -exchange      EXHF   =         0.00000000
  -V(xc)+E(xc)   XCENC  =      5605.10739834
  PAW double counting   =    170743.12622162  -179770.06744004
  entropy T*S    EENTRO =        -0.05395124
  eigenvalues    EBANDS =    -19187.45109759
  atomic energy  EATOM  =    224013.29143063
  Solvation  Ediel_sol  =         0.00000000
  ---------------------------------------------------
  free energy    TOTEN  =      -361.89068068 eV

  energy without entropy =     -361.83672945  energy(sigma->0) =     -361.87269694


--------------------------------------------------------------------------------------------------------




----------------------------------------- Iteration    1(  14)  ---------------------------------------


    POTLOK:  cpu time    3.0765: real time    3.0745
    SETDIJ:  cpu time    0.4289: real time    0.4278
     EDDAV:  cpu time  440.2551: real time  439.8984
       DOS:  cpu time    0.0160: real time    0.0154
    CHARGE:  cpu time   29.9105: real time   29.8857
    MIXING:  cpu time    0.0900: real time    0.0901
    --------------------------------------------
      LOOP:  cpu time  473.7780: real time  473.3926

 eigenvalue-minimisations  :  8068
 total energy-change (2. order) : 0.2086282E-04  (-0.4792560E-06)
 number of electron    1024.0004504 magnetization      45.7172775
 augmentation part      606.8650074 magnetization      39.1469303

 Broyden mixing:
  rms(total) = 0.88130E-03    rms(broyden)= 0.88130E-03
  rms(prec ) = 0.10759E-02
  weight for this iteration     100.00

 eigenvalues of (default mixing * dielectric matrix)
  average eigenvalue GAMMA=   1.2550
  2.4896  2.4896  1.7897  0.9927  0.9150  0.8041  0.5638  0.6293  0.6216

 Free energy of the ion-electron system (eV)
  ---------------------------------------------------
  alpha Z        PSCENC =      8628.10280496
  Ewald energy   TEWEN  =   -146823.96742896
  -Hartree energ DENC   =    -63570.54888959
  -exchange      EXHF   =         0.00000000
  -V(xc)+E(xc)   XCENC  =      5605.12922784
  PAW double counting   =    170749.81162742  -179776.44102331
  entropy T*S    EENTRO =        -0.05387613
  eigenvalues    EBANDS =    -19187.21453268
  atomic energy  EATOM  =    224013.29143063
  Solvation  Ediel_sol  =         0.00000000
  ---------------------------------------------------
  free energy    TOTEN  =      -361.89065982 eV

  energy without entropy =     -361.83678369  energy(sigma->0) =     -361.87270111


--------------------------------------------------------------------------------------------------------




----------------------------------------- Iteration    1(  15)  ---------------------------------------


    POTLOK:  cpu time    3.0825: real time    3.0795
    SETDIJ:  cpu time    0.4249: real time    0.4249
     EDDAV:  cpu time  365.3425: real time  365.0462
       DOS:  cpu time    0.0150: real time    0.0153
    CHARGE:  cpu time   30.8883: real time   30.8633
    MIXING:  cpu time    0.0970: real time    0.0959
    --------------------------------------------
      LOOP:  cpu time  399.8502: real time  399.5259

 eigenvalue-minimisations  :  6252
 total energy-change (2. order) : 0.8265459E-05  (-0.2041560E-06)
 number of electron    1024.0004504 magnetization      45.7166945
 augmentation part      606.8617286 magnetization      39.1461791

 Broyden mixing:
  rms(total) = 0.85761E-04    rms(broyden)= 0.85406E-04
  rms(prec ) = 0.93094E-04
  weight for this iteration     100.00

 eigenvalues of (default mixing * dielectric matrix)
  average eigenvalue GAMMA=   1.2360
  2.6160  2.4506  1.8086  1.0272  1.0272  0.8012  0.8012  0.5638  0.6277  0.6360

 Free energy of the ion-electron system (eV)
  ---------------------------------------------------
  alpha Z        PSCENC =      8628.10280496
  Ewald energy   TEWEN  =   -146823.96742896
  -Hartree energ DENC   =    -63570.84158057
  -exchange      EXHF   =         0.00000000
  -V(xc)+E(xc)   XCENC  =      5605.14009987
  PAW double counting   =    170752.49022648  -179779.02529530
  entropy T*S    EENTRO =        -0.05381646
  eigenvalues    EBANDS =    -19187.02709220
  atomic energy  EATOM  =    224013.29143063
  Solvation  Ediel_sol  =         0.00000000
  ---------------------------------------------------
  free energy    TOTEN  =      -361.89065155 eV

  energy without entropy =     -361.83683509  energy(sigma->0) =     -361.87271273


--------------------------------------------------------------------------------------------------------




----------------------------------------- Iteration    1(  16)  ---------------------------------------


    POTLOK:  cpu time    3.1045: real time    3.1014
    SETDIJ:  cpu time    0.4299: real time    0.4304
     EDDAV:  cpu time  341.4251: real time  341.1505
       DOS:  cpu time    0.0150: real time    0.0154
    --------------------------------------------
      LOOP:  cpu time  344.9756: real time  344.6984

 eigenvalue-minimisations  :  5396
 total energy-change (2. order) :-0.4045432E-06  (-0.1712814E-07)
 number of electron    1024.0004504 magnetization      45.7166945
 augmentation part      606.8617286 magnetization      39.1461791

 Free energy of the ion-electron system (eV)
  ---------------------------------------------------
  alpha Z        PSCENC =      8628.10280496
  Ewald energy   TEWEN  =   -146823.96742896
  -Hartree energ DENC   =    -63570.83072992
  -exchange      EXHF   =         0.00000000
  -V(xc)+E(xc)   XCENC  =      5605.13973327
  PAW double counting   =    170752.45489973  -179778.99754216
  entropy T*S    EENTRO =        -0.05381579
  eigenvalues    EBANDS =    -19187.03000373
  atomic energy  EATOM  =    224013.29143063
  Solvation  Ediel_sol  =         0.00000000
  ---------------------------------------------------
  free energy    TOTEN  =      -361.89065196 eV

  energy without entropy =     -361.83683617  energy(sigma->0) =     -361.87271336


--------------------------------------------------------------------------------------------------------




 average (electrostatic) potential at core
  the test charge radii are     0.8614
  (the norm of the test charge is              1.0000)
       1 -80.8095       2 -80.8095       3 -80.8095       4 -80.8095       5 -80.8095
       6 -80.8095       7 -80.8095       8 -80.8095       9 -80.8095      10 -80.8095
      11 -80.8095      12 -80.8095      13 -80.8095      14 -80.8095      15 -80.8095
      16 -80.8095      17 -80.8095      18 -80.8095      19 -80.8095      20 -80.8095
      21 -80.8095      22 -80.8095      23 -80.8095      24 -80.8095      25 -80.8095
      26 -80.8095      27 -80.8095      28 -80.8095      29 -80.8095      30 -80.8095
      31 -80.8095      32 -80.8095      33 -80.8095      34 -80.8095      35 -80.8095
      36 -80.8095      37 -80.8095      38 -80.8095      39 -80.8095      40 -80.8095
      41 -80.8095      42 -80.8095      43 -80.8095      44 -80.8095      45 -80.8095
      46 -80.8095      47 -80.8095      48 -80.8095      49 -80.8095      50 -80.8095
      51 -80.8095      52 -80.8095      53 -80.8095      54 -80.8095      55 -80.8095
      56 -80.8095      57 -80.8095      58 -80.8095      59 -80.8095      60 -80.8095
      61 -80.8095      62 -80.8095      63 -80.8095      64 -80.8095
 
 
 
 E-fermi :   6.2674     XC(G=0): -12.9196     alpha+bet :-12.9573


 spin component 1

 k-point     1 :       0.0000    0.0000    0.0000
  band No.  band energies     occupation 
      1     -57.5970      1.00000
      2     -57.5970      1.00000
      3     -57.5970      1.00000
      4     -57.5970      1.00000
      5     -57.5893      1.00000
      6     -57.5893      1.00000
      7     -57.5893      1.00000
      8     -57.5728      1.00000
      9     -57.5728      1.00000
     10     -57.5728      1.00000
     11     -57.5728      1.00000
     12     -57.5728      1.00000
     13     -57.5728      1.00000
     14     -57.5728      1.00000
     15     -57.5728      1.00000
     16     -57.5728      1.00000
     17     -57.5728      1.00000
     18     -57.5728      1.00000
     19     -57.5728      1.00000
     20     -57.5728      1.00000
     21     -57.5728      1.00000
     22     -57.5728      1.00000
     23     -57.5728      1.00000
     24     -57.5728      1.00000
     25     -57.5728      1.00000
     26     -57.5728      1.00000
     27     -57.5728      1.00000
     28     -57.5728      1.00000
     29     -57.5728      1.00000
     30     -57.5728      1.00000
     31     -57.5728      1.00000
     32     -57.5522      1.00000
     33     -57.5522      1.00000
     34     -57.5522      1.00000
     35     -57.5522      1.00000
     36     -57.5522      1.00000
     37     -57.5522      1.00000
     38     -57.5522      1.00000
     39     -57.5522      1.00000
     40     -57.5522      1.00000
     41     -57.5522      1.00000
     42     -57.5522      1.00000
     43     -57.5522      1.00000
     44     -57.5513      1.00000
     45     -57.5513      1.00000
     46     -57.5513      1.00000
     47     -57.5513      1.00000
     48     -57.5513      1.00000
     49     -57.5513      1.00000
     50     -57.5513      1.00000
     51     -57.5513      1.00000
     52     -57.5513      1.00000
     53     -57.5513      1.00000
     54     -57.5513      1.00000
     55     -57.5513      1.00000
     56     -57.5345      1.00000
     57     -57.5345      1.00000
     58     -57.5345      1.00000
     59     -57.5345      1.00000
     60     -57.5345      1.00000
     61     -57.5345      1.00000
     62     -57.5345      1.00000
     63     -57.5345      1.00000
     64     -57.5289      1.00000
     65     -57.5289      1.00000
     66     -57.5289      1.00000
     67     -57.5289      1.00000
     68     -57.5289      1.00000
     69     -57.5289      1.00000
     70     -57.5162      1.00000
     71     -57.5162      1.00000
     72     -57.5162      1.00000
     73     -57.5162      1.00000
     74     -57.5162      1.00000
     75     -57.5162      1.00000
     76     -57.5162      1.00000
     77     -57.5162      1.00000
     78     -57.5162      1.00000
     79     -57.5162      1.00000
     80     -57.5162      1.00000
     81     -57.5162      1.00000
     82     -57.5146      1.00000
     83     -57.5146      1.00000
     84     -57.5146      1.00000
     85     -57.5146      1.00000
     86     -57.5146      1.00000
     87     -57.5146      1.00000
     88     -57.5146      1.00000
     89     -57.5146      1.00000
     90     -57.5146      1.00000
     91     -57.5146      1.00000
     92     -57.5146      1.00000
     93     -57.5146      1.00000
     94     -57.5146      1.00000
     95     -57.5146      1.00000
     96     -57.5146      1.00000
     97     -57.5146      1.00000
     98     -57.5146      1.00000
     99     -57.5146      1.00000
    100     -57.5146      1.00000
    101     -57.5146      1.00000
    102     -57.5146      1.00000
    103     -57.5146      1.00000
    104     -57.5146      1.00000
    105     -57.5146      1.00000
    106     -57.5124      1.00000
    107     -57.5124      1.00000
    108     -57.5124      1.00000
    109     -57.5124      1.00000
    110     -57.5124      1.00000
    111     -57.5124      1.00000
    112     -57.5053      1.00000
    113     -57.5053      1.00000
    114     -57.5053      1.00000
    115     -57.5053      1.00000
    116     -57.5053      1.00000
    117     -57.5053      1.00000
    118     -57.4972      1.00000
    119     -57.4972      1.00000
    120     -57.4972      1.00000
    121     -57.4972      1.00000
    122     -57.4972      1.00000
    123     -57.4972      1.00000
    124     -57.4972      1.00000
    125     -57.4972      1.00000
    126     -57.4972      1.00000
    127     -57.4972      1.00000
    128     -57.4972      1.00000
    129     -57.4972      1.00000
    130     -57.4971      1.00000
    131     -57.4971      1.00000
    132     -57.4971      1.00000
    133     -57.4971      1.00000
    134     -57.4971      1.00000
    135     -57.4971      1.00000
    136     -57.4971      1.00000
    137     -57.4971      1.00000
    138     -57.4971      1.00000
    139     -57.4971      1.00000
    140     -57.4971      1.00000
    141     -57.4971      1.00000
    142     -57.4876      1.00000
    143     -57.4876      1.00000
    144     -57.4876      1.00000
    145     -57.4876      1.00000
    146     -57.4876      1.00000
    147     -57.4876      1.00000
    148     -57.4876      1.00000
    149     -57.4876      1.00000
    150     -57.4876      1.00000
    151     -57.4876      1.00000
    152     -57.4876      1.00000
    153     -57.4876      1.00000
    154     -57.4841      1.00000
    155     -57.4841      1.00000
    156     -57.4841      1.00000
    157     -57.4841      1.00000
    158     -57.4841      1.00000
    159     -57.4841      1.00000
    160     -57.4841      1.00000
    161     -57.4841      1.00000
    162     -57.4745      1.00000
    163     -57.4745      1.00000
    164     -57.4745      1.00000
    165     -57.4745      1.00000
    166     -57.4745      1.00000
    167     -57.4745      1.00000
    168     -57.4745      1.00000
    169     -57.4745      1.00000
    170     -57.4745      1.00000
    171     -57.4745      1.00000
    172     -57.4745      1.00000
    173     -57.4745      1.00000
    174     -57.4694      1.00000
    175     -57.4694      1.00000
    176     -57.4694      1.00000
    177     -57.4694      1.00000
    178     -57.4694      1.00000
    179     -57.4694      1.00000
    180     -57.4694      1.00000
    181     -57.4694      1.00000
    182     -57.4694      1.00000
    183     -57.4694      1.00000
    184     -57.4694      1.00000
    185     -57.4694      1.00000
    186     -57.4694      1.00000
    187     -57.4694      1.00000
    188     -57.4694      1.00000
    189     -57.4694      1.00000
    190     -57.4559      1.00000
    191     -57.4558      1.00000
    192     -57.4558      1.00000
    193      -1.8748      1.00000
    194       0.1640      1.00000
    195       0.1640      1.00000
    196       0.1640      1.00000
    197       0.1640      1.00000
    198       0.1640      1.00000
    199       0.1640      1.00000
    200       0.1640      1.00000
    201       0.1640      1.00000
    202       0.7794      1.00000
    203       0.7794      1.00000
    204       0.7794      1.00000
    205       0.7794      1.00000
    206       0.7794      1.00000
    207       0.7794      1.00000
    208       2.0595      1.00000
    209       2.0596      1.00000
    210       2.0596      1.00000
    211       2.0596      1.00000
    212       2.2950      1.00000
    213       2.2950      1.00000
    214       2.2950      1.00000
    215       2.5349      1.00000
    216       2.5349      1.00000
    217       2.5349      1.00000
    218       2.5349      1.00000
    219       2.5349      1.00000
    220       2.5349      1.00000
    221       2.5349      1.00000
    222       2.5349      1.00000
    223       2.5349      1.00000
    224       2.5349      1.00000
    225       2.5349      1.00000
    226       2.5349      1.00000
    227       2.6575      1.00000
    228       2.6575      1.00000
    229       2.6575      1.00000
    230       2.7218      1.00000
    231       2.7218      1.00000
    232       2.7218      1.00000
    233       2.7218      1.00000
    234       2.7218      1.00000
    235       2.7218      1.00000
    236       2.7218      1.00000
    237       2.7218      1.00000
    238       2.7218      1.00000
    239       2.7219      1.00000
    240       2.7219      1.00000
    241       2.7219      1.00000
    242       2.7219      1.00000
    243       2.7219      1.00000
    244       2.7219      1.00000
    245       2.7219      1.00000
    246       2.7219      1.00000
    247       2.7219      1.00000
    248       2.7219      1.00000
    249       2.7219      1.00000
    250       2.7219      1.00000
    251       2.7219      1.00000
    252       2.7219      1.00000
    253       2.7219      1.00000
    254       3.0422      1.00000
    255       3.0422      1.00000
    256       3.0422      1.00000
    257       3.0422      1.00000
    258       3.0422      1.00000
    259       3.0422      1.00000
    260       3.2882      1.00000
    261       3.2882      1.00000
    262       3.2882      1.00000
    263       3.2882      1.00000
    264       3.2882      1.00000
    265       3.2882      1.00000
    266       3.2882      1.00000
    267       3.2882      1.00000
    268       3.2882      1.00000
    269       3.2882      1.00000
    270       3.2882      1.00000
    271       3.2882      1.00000
    272       3.2882      1.00000
    273       3.2882      1.00000
    274       3.2882      1.00000
    275       3.2882      1.00000
    276       3.2882      1.00000
    277       3.2882      1.00000
    278       3.2882      1.00000
    279       3.2882      1.00000
    280       3.2882      1.00000
    281       3.2882      1.00000
    282       3.2882      1.00000
    283       3.2882      1.00000
    284       3.3468      1.00000
    285       3.3468      1.00000
    286       3.3468      1.00000
    287       3.3469      1.00000
    288       3.3469      1.00000
    289       3.3469      1.00000
    290       3.5776      1.00000
    291       3.5776      1.00000
    292       3.5776      1.00000
    293       3.5776      1.00000
    294       3.5776      1.00000
    295       3.5776      1.00000
    296       3.5776      1.00000
    297       3.5776      1.00000
    298       3.5776      1.00000
    299       3.5776      1.00000
    300       3.5776      1.00000
    301       3.5776      1.00000
    302       3.5788      1.00000
    303       3.5788      1.00000
    304       3.5788      1.00000
    305       3.5788      1.00000
    306       3.5788      1.00000
    307       3.5788      1.00000
    308       3.5788      1.00000
    309       3.5788      1.00000
    310       3.5788      1.00000
    311       3.5788      1.00000
    312       3.5788      1.00000
    313       3.5788      1.00000
    314       3.8359      1.00000
    315       3.8359      1.00000
    316       3.8359      1.00000
    317       3.8359      1.00000
    318       3.8359      1.00000
    319       3.8359      1.00000
    320       3.8359      1.00000
    321       3.8359      1.00000
    322       3.8548      1.00000
    323       3.8548      1.00000
    324       3.8548      1.00000
    325       3.8548      1.00000
    326       3.8548      1.00000
    327       3.8548      1.00000
    328       3.8548      1.00000
    329       3.8548      1.00000
    330       3.8548      1.00000
    331       3.8548      1.00000
    332       3.8548      1.00000
    333       3.8548      1.00000
    334       4.0822      1.00000
    335       4.0822      1.00000
    336       4.0822      1.00000
    337       4.1065      1.00000
    338       4.1065      1.00000
    339       4.1065      1.00000
    340       4.1065      1.00000
    341       4.1065      1.00000
    342       4.1065      1.00000
    343       4.1065      1.00000
    344       4.1065      1.00000
    345       4.1364      1.00000
    346       4.1364      1.00000
    347       4.1364      1.00000
    348       4.1364      1.00000
    349       4.1364      1.00000
    350       4.1364      1.00000
    351       4.1364      1.00000
    352       4.1364      1.00000
    353       4.1364      1.00000
    354       4.1364      1.00000
    355       4.1364      1.00000
    356       4.1364      1.00000
    357       4.1364      1.00000
    358       4.1364      1.00000
    359       4.1364      1.00000
    360       4.1364      1.00000
    361       4.1364      1.00000
    362       4.1364      1.00000
    363       4.1364      1.00000
    364       4.1364      1.00000
    365       4.1364      1.00000
    366       4.1364      1.00000
    367       4.1364      1.00000
    368       4.1364      1.00000
    369       4.2716      1.00000
    370       4.2716      1.00000
    371       4.2716      1.00000
    372       4.2716      1.00000
    373       4.2716      1.00000
    374       4.2716      1.00000
    375       4.2716      1.00000
    376       4.2716      1.00000
    377       4.2716      1.00000
    378       4.2716      1.00000
    379       4.2716      1.00000
    380       4.2716      1.00000
    381       4.2717      1.00000
    382       4.2717      1.00000
    383       4.2717      1.00000
    384       4.2717      1.00000
    385       4.5691      1.00000
    386       4.5691      1.00000
    387       4.5691      1.00000
    388       4.5691      1.00000
    389       4.5691      1.00000
    390       4.5691      1.00000
    391       4.7023      1.00000
    392       4.7023      1.00000
    393       4.7023      1.00000
    394       4.7023      1.00000
    395       4.7023      1.00000
    396       4.7023      1.00000
    397       4.7023      1.00000
    398       4.7023      1.00000
    399       4.7023      1.00000
    400       4.7023      1.00000
    401       4.7023      1.00000
    402       4.7023      1.00000
    403       4.7636      1.00000
    404       4.7636      1.00000
    405       4.7636      1.00000
    406       4.7636      1.00000
    407       4.7636      1.00000
    408       4.7636      1.00000
    409       4.7636      1.00000
    410       4.7636      1.00000
    411       4.7636      1.00000
    412       4.7636      1.00000
    413       4.7636      1.00000
    414       4.7636      1.00000
    415       4.8061      1.00000
    416       4.8061      1.00000
    417       4.8061      1.00000
    418       4.8061      1.00000
    419       4.8061      1.00000
    420       4.8061      1.00000
    421       4.8061      1.00000
    422       4.8061      1.00000
    423       4.8061      1.00000
    424       4.8061      1.00000
    425       4.8061      1.00000
    426       4.8061      1.00000
    427       4.8061      1.00000
    428       4.8061      1.00000
    429       4.8061      1.00000
    430       4.8061      1.00000
    431       4.8061      1.00000
    432       4.8061      1.00000
    433       4.8061      1.00000
    434       4.8061      1.00000
    435       4.8061      1.00000
    436       4.8061      1.00000
    437       4.8061      1.00000
    438       4.8061      1.00000
    439       4.9307      1.00000
    440       4.9307      1.00000
    441       4.9307      1.00000
    442       4.9307      1.00000
    443       4.9307      1.00000
    444       4.9307      1.00000
    445       4.9307      1.00000
    446       4.9307      1.00000
    447       4.9307      1.00000
    448       4.9307      1.00000
    449       4.9307      1.00000
    450       4.9307      1.00000
    451       4.9977      1.00000
    452       4.9977      1.00000
    453       4.9977      1.00000
    454       4.9977      1.00000
    455       4.9977      1.00000
    456       4.9977      1.00000
    457       5.0415      1.00000
    458       5.0415      1.00000
    459       5.0954      1.00000
    460       5.0954      1.00000
    461       5.0954      1.00000
    462       5.0954      1.00000
    463       5.0954      1.00000
    464       5.0954      1.00000
    465       5.0954      1.00000
    466       5.0954      1.00000
    467       5.0954      1.00000
    468       5.0954      1.00000
    469       5.0954      1.00000
    470       5.0954      1.00000
    471       5.0954      1.00000
    472       5.0954      1.00000
    473       5.0954      1.00000
    474       5.0954      1.00000
    475       5.3238      1.00000
    476       5.3238      1.00000
    477       5.3238      1.00000
    478       5.3238      1.00000
    479       5.3238      1.00000
    480       5.3238      1.00000
    481       5.5676      1.00000
    482       5.5676      1.00000
    483       5.5676      1.00000
    484       5.5676      1.00000
    485       5.5676      1.00000
    486       5.5676      1.00000
    487       5.5676      1.00000
    488       5.5676      1.00000
    489       5.6060      1.00002
    490       5.6060      1.00002
    491       5.6060      1.00002
    492       5.6060      1.00002
    493       5.6060      1.00002
    494       5.6060      1.00002
    495       5.6060      1.00002
    496       5.6060      1.00002
    497       5.6060      1.00002
    498       5.6060      1.00002
    499       5.6060      1.00002
    500       5.6060      1.00002
    501       5.6060      1.00002
    502       5.6060      1.00002
    503       5.6060      1.00002
    504       5.6060      1.00002
    505       5.6060      1.00002
    506       5.6060      1.00002
    507       5.6061      1.00002
    508       5.6061      1.00002
    509       5.6061      1.00002
    510       5.6061      1.00002
    511       5.6061      1.00002
    512       5.6061      1.00002
    513       5.6148      1.00002
    514       5.6148      1.00002
    515       5.6148      1.00002
    516       5.6690      1.00010
    517       5.6690      1.00010
    518       5.6690      1.00010
    519       5.6690      1.00010
    520       5.6690      1.00010
    521       5.6690      1.00010
    522       5.6692      1.00010
    523       5.6692      1.00010
    524       5.6692      1.00010
    525       5.6692      1.00010
    526       5.6692      1.00010
    527       5.6692      1.00010
    528       6.1716      0.85820
    529       6.1716      0.85819
    530       6.1716      0.85819
    531       6.1717      0.85805
    532       6.9252     -0.00002
    533       6.9252     -0.00002
    534       6.9252     -0.00002
    535       6.9252     -0.00002
    536       6.9252     -0.00002
    537       6.9252     -0.00002
    538       6.9252     -0.00002
    539       6.9252     -0.00002
    540       6.9252     -0.00002
    541       6.9252     -0.00002
    542       6.9252     -0.00002
    543       6.9252     -0.00002
    544       8.1425     -0.00000
    545       8.1425     -0.00000
    546       8.1425     -0.00000
    547       8.1425     -0.00000
    548       8.1425     -0.00000
    549       8.1425     -0.00000
    550       8.1425     -0.00000
    551       8.1425     -0.00000
    552       8.1425     -0.00000
    553       8.1425     -0.00000
    554       8.1425     -0.00000
    555       8.1425     -0.00000
    556       8.1426     -0.00000
    557       8.1426     -0.00000
    558       8.1426     -0.00000
    559       8.1426     -0.00000
    560       8.1426     -0.00000
    561       8.1426     -0.00000
    562       8.1426     -0.00000
    563       8.1426     -0.00000
    564       8.1426     -0.00000
    565       8.1426     -0.00000
    566       8.1426     -0.00000
    567       8.1426     -0.00000
    568       8.5948     -0.00000
    569       8.5948     -0.00000
    570       8.5948     -0.00000
    571      10.9647     -0.00000
    572      10.9647     -0.00000
    573      10.9647     -0.00000
    574      10.9647     -0.00000
    575      13.2227      0.00000
    576      13.2227      0.00000
    577      13.2227      0.00000
    578      13.2227      0.00000
    579      13.2227      0.00000
    580      13.2227      0.00000
    581      13.2227      0.00000
    582      13.2227      0.00000
[...]
      7.367250  3.683625  3.683625    -0.004268    0.006982    0.124732  
      9.209063  5.525438  3.683625    -0.004268    0.006982    0.124732  
      5.525438  0.000000  5.525438    -0.004268    0.006982    0.124732  
      7.367250  1.841813  5.525438    -0.004268    0.006982    0.124732  
      9.209063  3.683625  5.525438    -0.004268    0.006982    0.124732  
     11.050875  5.525438  5.525438    -0.004268    0.006982    0.124732  
      0.000000  1.841813  1.841813    -0.004268    0.006982    0.124732  
      1.841813  3.683625  1.841813    -0.004268    0.006982    0.124732  
      3.683625  5.525438  1.841813    -0.004268    0.006982    0.124732  
      5.525438  7.367250  1.841813    -0.004268    0.006982    0.124732  
      1.841813  1.841813  3.683625    -0.004268    0.006982    0.124732  
      3.683625  3.683625  3.683625    -0.004268    0.006982    0.124732  
      5.525438  5.525438  3.683625    -0.004268    0.006982    0.124732  
      7.367250  7.367250  3.683625    -0.004268    0.006982    0.124732  
      3.683625  1.841813  5.525438    -0.004268    0.006982    0.124732  
      5.525438  3.683625  5.525438    -0.004268    0.006982    0.124732  
      7.367250  5.525438  5.525438    -0.004268    0.006982    0.124732  
      9.209063  7.367250  5.525438    -0.004268    0.006982    0.124732  
      5.525438  1.841813  7.367250    -0.004268    0.006982    0.124732  
      7.367250  3.683625  7.367250    -0.004268    0.006982    0.124732  
      9.209063  5.525438  7.367250    -0.004268    0.006982    0.124732  
     11.050875  7.367250  7.367250    -0.004268    0.006982    0.124732  
      0.000000  3.683625  3.683625    -0.004268    0.006982    0.124732  
      1.841813  5.525438  3.683625    -0.004268    0.006982    0.124732  
      3.683625  7.367250  3.683625    -0.004268    0.006982    0.124732  
      5.525438  9.209063  3.683625    -0.004268    0.006982    0.124732  
      1.841813  3.683625  5.525438    -0.004268    0.006982    0.124732  
      3.683625  5.525438  5.525438    -0.004268    0.006982    0.124732  
      5.525438  7.367250  5.525438    -0.004268    0.006982    0.124732  
      7.367250  9.209063  5.525438    -0.004268    0.006982    0.124732  
      3.683625  3.683625  7.367250    -0.004268    0.006982    0.124732  
      5.525438  5.525438  7.367250    -0.004268    0.006982    0.124732  
      7.367250  7.367250  7.367250    -0.004268    0.006982    0.124732  
      9.209063  9.209063  7.367250    -0.004268    0.006982    0.124732  
      5.525438  3.683625  9.209063    -0.004268    0.006982    0.124732  
      7.367250  5.525438  9.209063    -0.004268    0.006982    0.124732  
      9.209063  7.367250  9.209063    -0.004268    0.006982    0.124732  
     11.050875  9.209063  9.209063    -0.004268    0.006982    0.124732  
      0.000000  5.525438  5.525438    -0.004268    0.006982    0.124732  
      1.841813  7.367250  5.525438    -0.004268    0.006982    0.124732  
      3.683625  9.209063  5.525438    -0.004268    0.006982    0.124732  
      5.525438 11.050875  5.525438    -0.004268    0.006982    0.124732  
      1.841813  5.525438  7.367250    -0.004268    0.006982    0.124732  
      3.683625  7.367250  7.367250    -0.004268    0.006982    0.124732  
      5.525438  9.209063  7.367250    -0.004268    0.006982    0.124732  
      7.367250 11.050875  7.367250    -0.004268    0.006982    0.124732  
      3.683625  5.525438  9.209063    -0.004268    0.006982    0.124732  
      5.525438  7.367250  9.209063    -0.004268    0.006982    0.124732  
      7.367250  9.209063  9.209063    -0.004268    0.006982    0.124732  
      9.209063 11.050875  9.209063    -0.004268    0.006982    0.124732  
      5.525438  5.525438 11.050875    -0.004268    0.006982    0.124732  
      7.367250  7.367250 11.050875    -0.004268    0.006982    0.124732  
      9.209063  9.209063 11.050875    -0.004268    0.006982    0.124732  
     11.050875 11.050875 11.050875    -0.004268    0.006982    0.124732  
 
 192 f/i=    0.000001 THz     0.000006 2PiTHz    0.000029 cm-1     0.000004 meV
             X         Y         Z           dx          dy          dz
      0.000000  0.000000  0.000000     0.106745    0.065043    0.000012  
      1.841813  1.841813  0.000000     0.106745    0.065043    0.000012  
      3.683625  3.683625  0.000000     0.106745    0.065043    0.000012  
      5.525438  5.525438  0.000000     0.106745    0.065043    0.000012  
      1.841813  0.000000  1.841813     0.106745    0.065043    0.000012  
      3.683625  1.841813  1.841813     0.106745    0.065043    0.000012  
      5.525438  3.683625  1.841813     0.106745    0.065043    0.000012  
      7.367250  5.525438  1.841813     0.106745    0.065043    0.000012  
      3.683625  0.000000  3.683625     0.106745    0.065043    0.000012  
      5.525438  1.841813  3.683625     0.106745    0.065043    0.000012  
      7.367250  3.683625  3.683625     0.106745    0.065043    0.000012  
      9.209063  5.525438  3.683625     0.106745    0.065043    0.000012  
      5.525438  0.000000  5.525438     0.106745    0.065043    0.000012  
      7.367250  1.841813  5.525438     0.106745    0.065043    0.000012  
      9.209063  3.683625  5.525438     0.106745    0.065043    0.000012  
     11.050875  5.525438  5.525438     0.106745    0.065043    0.000012  
      0.000000  1.841813  1.841813     0.106745    0.065043    0.000012  
      1.841813  3.683625  1.841813     0.106745    0.065043    0.000012  
      3.683625  5.525438  1.841813     0.106745    0.065043    0.000012  
      5.525438  7.367250  1.841813     0.106745    0.065043    0.000012  
      1.841813  1.841813  3.683625     0.106745    0.065043    0.000012  
      3.683625  3.683625  3.683625     0.106745    0.065043    0.000012  
      5.525438  5.525438  3.683625     0.106745    0.065043    0.000012  
      7.367250  7.367250  3.683625     0.106745    0.065043    0.000012  
      3.683625  1.841813  5.525438     0.106745    0.065043    0.000012  
      5.525438  3.683625  5.525438     0.106745    0.065043    0.000012  
      7.367250  5.525438  5.525438     0.106745    0.065043    0.000012  
      9.209063  7.367250  5.525438     0.106745    0.065043    0.000012  
      5.525438  1.841813  7.367250     0.106745    0.065043    0.000012  
      7.367250  3.683625  7.367250     0.106745    0.065043    0.000012  
      9.209063  5.525438  7.367250     0.106745    0.065043    0.000012  
     11.050875  7.367250  7.367250     0.106745    0.065043    0.000012  
      0.000000  3.683625  3.683625     0.106745    0.065043    0.000012  
      1.841813  5.525438  3.683625     0.106745    0.065043    0.000012  
      3.683625  7.367250  3.683625     0.106745    0.065043    0.000012  
      5.525438  9.209063  3.683625     0.106745    0.065043    0.000012  
      1.841813  3.683625  5.525438     0.106745    0.065043    0.000012  
      3.683625  5.525438  5.525438     0.106745    0.065043    0.000012  
      5.525438  7.367250  5.525438     0.106745    0.065043    0.000012  
      7.367250  9.209063  5.525438     0.106745    0.065043    0.000012  
      3.683625  3.683625  7.367250     0.106745    0.065043    0.000012  
      5.525438  5.525438  7.367250     0.106745    0.065043    0.000012  
      7.367250  7.367250  7.367250     0.106745    0.065043    0.000012  
      9.209063  9.209063  7.367250     0.106745    0.065043    0.000012  
      5.525438  3.683625  9.209063     0.106745    0.065043    0.000012  
      7.367250  5.525438  9.209063     0.106745    0.065043    0.000012  
      9.209063  7.367250  9.209063     0.106745    0.065043    0.000012  
     11.050875  9.209063  9.209063     0.106745    0.065043    0.000012  
      0.000000  5.525438  5.525438     0.106745    0.065043    0.000012  
      1.841813  7.367250  5.525438     0.106745    0.065043    0.000012  
      3.683625  9.209063  5.525438     0.106745    0.065043    0.000012  
      5.525438 11.050875  5.525438     0.106745    0.065043    0.000012  
      1.841813  5.525438  7.367250     0.106745    0.065043    0.000012  
      3.683625  7.367250  7.367250     0.106745    0.065043    0.000012  
      5.525438  9.209063  7.367250     0.106745    0.065043    0.000012  
      7.367250 11.050875  7.367250     0.106745    0.065043    0.000012  
      3.683625  5.525438  9.209063     0.106745    0.065043    0.000012  
      5.525438  7.367250  9.209063     0.106745    0.065043    0.000012  
      7.367250  9.209063  9.209063     0.106745    0.065043    0.000012  
      9.209063 11.050875  9.209063     0.106745    0.065043    0.000012  
      5.525438  5.525438 11.050875     0.106745    0.065043    0.000012  
      7.367250  7.367250 11.050875     0.106745    0.065043    0.000012  
      9.209063  9.209063 11.050875     0.106745    0.065043    0.000012  
     11.050875 11.050875 11.050875     0.106745    0.065043    0.000012  
 

 ELASTIC MODULI CONTR FROM IONIC RELAXATION (kBar)
 Direction    XX          YY          ZZ          XY          YZ          ZX
 --------------------------------------------------------------------------------
 XX           0.0000      0.0000     -0.0000     -0.0000     -0.0000      0.0000
 YY          -0.0000     -0.0000     -0.0000     -0.0000     -0.0000      0.0000
 ZZ          -0.0000     -0.0000     -0.0000     -0.0000     -0.0000      0.0000
 XY          -0.0000     -0.0000     -0.0000     -0.0000      0.0000      0.0000
 YZ          -0.0000     -0.0000     -0.0000      0.0000      0.0000      0.0000
 ZX           0.0000      0.0000      0.0000      0.0000      0.0000      0.0000
 --------------------------------------------------------------------------------



--------------------------------------------------------------------------------------------------------


  LATTYP: Found a face centered cubic cell.
 ALAT       =    14.7345000000
  
  Lattice vectors:
  
 A1 = (   0.0000000000,   7.3672500000,   7.3672500000)
 A2 = (   7.3672500000,   0.0000000000,   7.3672500000)
 A3 = (   7.3672500000,   7.3672500000,   0.0000000000)


Analysis of symmetry for initial positions (statically):
=====================================================================
 Subroutine PRICEL returns following result:
 
  LATTYP: Found a face centered cubic cell.
 ALAT       =     3.6836250000
  
  Lattice vectors:
  
 A1 = (   0.0000000000,   1.8418125000,   1.8418125000)
 A2 = (   1.8418125000,   0.0000000000,   1.8418125000)
 A3 = (   1.8418125000,   1.8418125000,   0.0000000000)
 
  64 primitive cells build up your supercell.
 

 Routine SETGRP: Setting up the symmetry group for a 
 face centered cubic supercell.


 Subroutine GETGRP returns: Found 48 space group operations
 (whereof 48 operations were pure point group operations)
 out of a pool of 48 trial point group operations.


The static configuration has the point symmetry O_h .


Analysis of symmetry for dynamics (positions and initial velocities):
=====================================================================
 Subroutine PRICEL returns following result:
 
  LATTYP: Found a face centered cubic cell.
 ALAT       =     3.6836250000
  
  Lattice vectors:
  
 A1 = (   0.0000000000,   1.8418125000,   1.8418125000)
 A2 = (   1.8418125000,   0.0000000000,   1.8418125000)
 A3 = (   1.8418125000,   1.8418125000,   0.0000000000)
 
  64 primitive cells build up your supercell.
 

 Routine SETGRP: Setting up the symmetry group for a 
 face centered cubic supercell.


 Subroutine GETGRP returns: Found 48 space group operations
 (whereof 48 operations were pure point group operations)
 out of a pool of 48 trial point group operations.


The dynamic configuration has the point symmetry O_h .


Analysis of structural, dynamic, and magnetic symmetry:
=====================================================================
 Subroutine PRICEL returns following result:
 
  LATTYP: Found a face centered cubic cell.
 ALAT       =     3.6836250000
  
  Lattice vectors:
  
 A1 = (   0.0000000000,   1.8418125000,   1.8418125000)
 A2 = (   1.8418125000,   0.0000000000,   1.8418125000)
 A3 = (   1.8418125000,   1.8418125000,   0.0000000000)
 
  64 primitive cells build up your supercell.
 

 Routine SETGRP: Setting up the symmetry group for a 
 face centered cubic supercell.


 Subroutine GETGRP returns: Found 48 space group operations
 (whereof 48 operations were pure point group operations)
 out of a pool of 48 trial point group operations.


The magnetic configuration has the point symmetry O_h .


 Subroutine INISYM returns: Found 48 space group operations
 (whereof 48 operations are pure point group operations),
 and found    64 'primitive' translations

 
 KPOINTS: Zr 15x15x15                             

Automatic generation of k-mesh.
Space group operators:
 irot       det(A)        alpha          n_x          n_y          n_z        tau_x        tau_y        tau_z
    1     1.000000     0.000000     1.000000     0.000000     0.000000     0.000000     0.000000     0.000000
    2    -1.000000     0.000000     1.000000     0.000000     0.000000     0.000000     0.000000     0.000000
    3     1.000000   120.000000    -0.577350    -0.577350    -0.577350     0.000000     0.000000     0.000000
    4    -1.000000   120.000000    -0.577350    -0.577350    -0.577350     0.000000     0.000000     0.000000
    5     1.000000   120.000000     0.577350     0.577350     0.577350     0.000000     0.000000     0.000000
    6    -1.000000   120.000000     0.577350     0.577350     0.577350     0.000000     0.000000     0.000000
    7     1.000000    90.000000     0.000000     0.000000    -1.000000     0.000000     0.000000     0.000000
    8    -1.000000    90.000000     0.000000     0.000000    -1.000000     0.000000     0.000000     0.000000
    9     1.000000   180.000000     0.000000     0.707107     0.707107     0.000000     0.000000     0.000000
   10    -1.000000   180.000000     0.000000     0.707107     0.707107     0.000000     0.000000     0.000000
   11     1.000000    90.000000     0.000000     1.000000     0.000000     0.000000     0.000000     0.000000
   12    -1.000000    90.000000     0.000000     1.000000     0.000000     0.000000     0.000000     0.000000
   13     1.000000   179.999999     0.000000     0.000000     1.000000     0.000000     0.000000     0.000000
   14    -1.000000   179.999999     0.000000     0.000000     1.000000     0.000000     0.000000     0.000000
   15     1.000000   120.000000    -0.577350     0.577350     0.577350     0.000000     0.000000     0.000000
   16    -1.000000   120.000000    -0.577350     0.577350     0.577350     0.000000     0.000000     0.000000
   17     1.000000   120.000000    -0.577350     0.577350    -0.577350     0.000000     0.000000     0.000000
   18    -1.000000   120.000000    -0.577350     0.577350    -0.577350     0.000000     0.000000     0.000000
   19     1.000000    90.000000     0.000000     0.000000     1.000000     0.000000     0.000000     0.000000
   20    -1.000000    90.000000     0.000000     0.000000     1.000000     0.000000     0.000000     0.000000
   21     1.000000    90.000000    -1.000000     0.000000     0.000000     0.000000     0.000000     0.000000
   22    -1.000000    90.000000    -1.000000     0.000000     0.000000     0.000000     0.000000     0.000000
   23     1.000000   180.000000     0.707107     0.000000     0.707107     0.000000     0.000000     0.000000
   24    -1.000000   180.000000     0.707107     0.000000     0.707107     0.000000     0.000000     0.000000
   25     1.000000   120.000000     0.577350    -0.577350     0.577350     0.000000     0.000000     0.000000
   26    -1.000000   120.000000     0.577350    -0.577350     0.577350     0.000000     0.000000     0.000000
   27     1.000000   120.000000    -0.577350    -0.577350     0.577350     0.000000     0.000000     0.000000
   28    -1.000000   120.000000    -0.577350    -0.577350     0.577350     0.000000     0.000000     0.000000
   29     1.000000   180.000000     1.000000     0.000000     0.000000     0.000000     0.000000     0.000000
   30    -1.000000   180.000000     1.000000     0.000000     0.000000     0.000000     0.000000     0.000000
   31     1.000000    90.000000     0.000000    -1.000000     0.000000     0.000000     0.000000     0.000000
   32    -1.000000    90.000000     0.000000    -1.000000     0.000000     0.000000     0.000000     0.000000
   33     1.000000   180.000000     0.707107     0.707107     0.000000     0.000000     0.000000     0.000000
   34    -1.000000   180.000000     0.707107     0.707107     0.000000     0.000000     0.000000     0.000000
   35     1.000000    90.000000     1.000000     0.000000     0.000000     0.000000     0.000000     0.000000
   36    -1.000000    90.000000     1.000000     0.000000     0.000000     0.000000     0.000000     0.000000
   37     1.000000   120.000000     0.577350    -0.577350    -0.577350     0.000000     0.000000     0.000000
   38    -1.000000   120.000000     0.577350    -0.577350    -0.577350     0.000000     0.000000     0.000000
   39     1.000000   180.000000     0.000000     1.000000     0.000000     0.000000     0.000000     0.000000
   40    -1.000000   180.000000     0.000000     1.000000     0.000000     0.000000     0.000000     0.000000
   41     1.000000   120.000000     0.577350     0.577350    -0.577350     0.000000     0.000000     0.000000
   42    -1.000000   120.000000     0.577350     0.577350    -0.577350     0.000000     0.000000     0.000000
   43     1.000000   180.000000     0.000000    -0.707107     0.707107     0.000000     0.000000     0.000000
   44    -1.000000   180.000000     0.000000    -0.707107     0.707107     0.000000     0.000000     0.000000
   45     1.000000   180.000000     0.707107    -0.707107     0.000000     0.000000     0.000000     0.000000
   46    -1.000000   180.000000     0.707107    -0.707107     0.000000     0.000000     0.000000     0.000000
   47     1.000000   180.000000     0.707107     0.000000    -0.707107     0.000000     0.000000     0.000000
   48    -1.000000   180.000000     0.707107     0.000000    -0.707107     0.000000     0.000000     0.000000
 
 Subroutine IBZKPT returns following result:
 ===========================================
 
 Found      4 irreducible k-points:
 
 Following reciprocal coordinates:
            Coordinates               Weight
  0.000000  0.000000  0.000000      1.000000
  0.333333  0.000000  0.000000      8.000000
  0.333333  0.333333  0.000000      6.000000
 -0.333333  0.333333  0.000000     12.000000
 
 Following cartesian coordinates:
            Coordinates               Weight
  0.000000  0.000000  0.000000      1.000000
 -0.022623  0.022623  0.022623      8.000000
  0.000000  0.000000  0.045245      6.000000
  0.045245 -0.045245  0.000000     12.000000
 
 writing wavefunctions
     LOOP+:  cpu time14561.0304: real time14550.4869
    4ORBIT:  cpu time    0.0000: real time    0.0000

 total amount of memory used by VASP on root node  1573566. kBytes
========================================================================

   base      :      30000. kBytes
   nonlr-proj:      58329. kBytes
   fftplans  :      94700. kBytes
   grid      :     227360. kBytes
   one-center:       1990. kBytes
   wavefun   :    1161187. kBytes
 
  
  
 General timing and accounting informations for this job:
 ========================================================
  
                  Total CPU time used (sec):    69669.523
                            User time (sec):    69654.822
                          System time (sec):       14.699
                         Elapsed time (sec):    69622.336
  
                   Maximum memory used (kb):     3919632.
                   Average memory used (kb):           0.
  
                          Minor page faults:       256771
                          Major page faults:            0
                 Voluntary context switches:          847
