       N       E                     dE             d eps       ncg     rms          rms(c)
DAV:   1     0.116273467523E+03    0.11627E+03   -0.96863E+03 17320   0.122E+03
DAV:   2    -0.433379083879E+01   -0.12061E+03   -0.11264E+03 17664   0.341E+02
DAV:   3    -0.662421400390E+01   -0.22904E+01   -0.22830E+01 20112   0.542E+01
DAV:   4    -0.664179616179E+01   -0.17582E-01   -0.17582E-01 18752   0.453E+00
DAV:   5    -0.664211334415E+01   -0.31718E-03   -0.31722E-03 20664   0.596E-01    0.850E+00
DAV:   6    -0.631644557948E+01    0.32567E+00   -0.43436E+00 18344   0.485E+01    0.748E+00
DAV:   7    -0.568887249211E+01    0.62757E+00   -0.10891E+00 17944   0.235E+01    0.811E-01
DAV:   8    -0.568047051272E+01    0.84020E-02   -0.13515E-02 21768   0.996E-01    0.302E-01
DAV:   9    -0.567914967813E+01    0.13208E-02   -0.74984E-04 24288   0.380E-01    0.638E-02
DAV:  10    -0.567918966371E+01   -0.39986E-04   -0.47914E-05 18752   0.774E-02    0.305E-02
DAV:  11    -0.567919385351E+01   -0.41898E-05   -0.57078E-06 20112   0.424E-02    0.686E-03
DAV:  12    -0.567919104258E+01    0.28109E-05   -0.10078E-06 15336   0.117E-02    0.474E-03
DAV:  13    -0.567919325087E+01   -0.22083E-05   -0.19014E-07  9976   0.677E-03    0.934E-04
DAV:  14    -0.567919345159E+01   -0.20072E-06   -0.25227E-08  9024   0.175E-03
   1 F= -.56791935E+01 E0= -.56791935E+01  d E =0.000000E+00  mag=     0.6670
