<?xml version="1.0" encoding="ISO-8859-1"?>
<modeling>
 <generator>
  <i name="program" type="string">vasp </i>
  <i name="version" type="string">5.4.1  </i>
  <i name="subversion" type="string">05Feb16 (build Oct 12 2016 17:31:35) complex                          parallel </i>
  <i name="platform" type="string">IFC91_ompi </i>
  <i name="date" type="string">2020 09 07 </i>
  <i name="time" type="string">16:22:06 </i>
 </generator>
 <incar>
  <i type="string" name="SYSTEM"> phonon of Zr bcc - omiga</i>
  <i type="string" name="PREC">a</i>
  <i type="int" name="ISPIN">     2</i>
  <i type="int" name="IBRION">     6</i>
  <i type="int" name="NFREE">     4</i>
  <i name="EDIFF">      0.00000100</i>
  <i type="int" name="NSW">     1</i>
  <v name="MAGMOM">      1.00000000      1.00000000      1.00000000      1.00000000      1.00000000      1.00000000      1.00000000      1.00000000      1.00000000      1.00000000      1.00000000      1.00000000      1.00000000      1.00000000      1.00000000      1.00000000      1.00000000      1.00000000      1.00000000      1.00000000
      1.00000000      1.00000000      1.00000000      1.00000000      1.00000000      1.00000000      1.00000000      1.00000000      1.00000000      1.00000000      1.00000000      1.00000000      1.00000000      1.00000000      1.00000000      1.00000000      1.00000000      1.00000000      1.00000000      1.00000000
      1.00000000      1.00000000      1.00000000      1.00000000      1.00000000      1.00000000      1.00000000      1.00000000      1.00000000      1.00000000      1.00000000      1.00000000      1.00000000      1.00000000      1.00000000      1.00000000      1.00000000      1.00000000      1.00000000      1.00000000
      1.00000000      1.00000000      1.00000000      1.00000000</v>
  <i type="string" name="LREAL">Auto</i>
  <i type="int" name="ISMEAR">     1</i>
  <i type="int" name="NWRITE">     0</i>
  <v type="int" name="KPOINT_BSE">    -1     0     0     0</v>
 </incar>
 <kpoints>
  <generation param="Gamma">
   <v type="int" name="divisions">       3        3        3 </v>
   <v name="usershift">      0.00000000       0.00000000       0.00000000 </v>
   <v name="genvec1">      0.33333333       0.00000000       0.00000000 </v>
   <v name="genvec2">      0.00000000       0.33333333       0.00000000 </v>
   <v name="genvec3">      0.00000000       0.00000000       0.33333333 </v>
   <v name="shift">      0.00000000       0.00000000       0.00000000 </v>
  </generation>
  <varray name="kpointlist" >
   <v>       0.00000000       0.00000000       0.00000000 </v>
   <v>       0.33333333       0.00000000       0.00000000 </v>
   <v>       0.33333333       0.33333333       0.00000000 </v>
   <v>      -0.33333333       0.33333333       0.00000000 </v>
  </varray>
  <varray name="weights" >
   <v>       0.03703704 </v>
   <v>       0.29629630 </v>
   <v>       0.22222222 </v>
   <v>       0.44444444 </v>
  </varray>
 </kpoints>
 <parameters>
  <separator name="general" >
   <i type="string" name="SYSTEM">phonon of Zr bcc - omiga</i>
   <i type="logical" name="LCOMPAT"> F  </i>
  </separator>
  <separator name="electronic" >
   <i type="string" name="PREC">a</i>
   <i name="ENMAX">    367.94500000</i>
   <i name="ENAUG">    703.44300000</i>
   <i name="EDIFF">      0.00000100</i>
   <i type="int" name="IALGO">    38</i>
   <i type="int" name="IWAVPR">    11</i>
   <i type="int" name="NBANDS">   646</i>
   <i name="NELECT">   1024.00000000</i>
   <i type="int" name="TURBO">     0</i>
   <i type="int" name="IRESTART">     0</i>
   <i type="int" name="NREBOOT">     0</i>
   <i type="int" name="NMIN">     0</i>
   <i name="EREF">      0.00000000</i>
   <separator name="electronic smearing" >
    <i type="int" name="ISMEAR">     1</i>
    <i name="SIGMA">      0.20000000</i>
    <i name="KSPACING">      0.50000000</i>
    <i type="logical" name="KGAMMA"> T  </i>
   </separator>
   <separator name="electronic projectors" >
    <i type="logical" name="LREAL"> T  </i>
    <v name="ROPT">     -0.00025000</v>
    <i type="int" name="LMAXPAW">  -100</i>
    <i type="int" name="LMAXMIX">     2</i>
    <i type="logical" name="NLSPLINE"> F  </i>
   </separator>
   <separator name="electronic startup" >
    <i type="int" name="ISTART">     0</i>
    <i type="int" name="ICHARG">     2</i>
    <i type="int" name="INIWAV">     1</i>
   </separator>
   <separator name="electronic spin" >
    <i type="int" name="ISPIN">     2</i>
    <i type="logical" name="LNONCOLLINEAR"> F  </i>
    <v name="MAGMOM">      1.00000000      1.00000000      1.00000000      1.00000000      1.00000000      1.00000000      1.00000000      1.00000000      1.00000000      1.00000000      1.00000000      1.00000000      1.00000000      1.00000000      1.00000000      1.00000000      1.00000000      1.00000000      1.00000000      1.00000000
      1.00000000      1.00000000      1.00000000      1.00000000      1.00000000      1.00000000      1.00000000      1.00000000      1.00000000      1.00000000      1.00000000      1.00000000      1.00000000      1.00000000      1.00000000      1.00000000      1.00000000      1.00000000      1.00000000      1.00000000
      1.00000000      1.00000000      1.00000000      1.00000000      1.00000000      1.00000000      1.00000000      1.00000000      1.00000000      1.00000000      1.00000000      1.00000000      1.00000000      1.00000000      1.00000000      1.00000000      1.00000000      1.00000000      1.00000000      1.00000000
      1.00000000      1.00000000      1.00000000      1.00000000</v>
    <i name="NUPDOWN">     -1.00000000</i>
    <i type="logical" name="LSORBIT"> F  </i>
    <v name="SAXIS">      0.00000000      0.00000000      1.00000000</v>
    <i type="logical" name="LSPIRAL"> F  </i>
    <v name="QSPIRAL">      0.00000000      0.00000000      0.00000000</v>
    <i type="logical" name="LZEROZ"> F  </i>
   </separator>
   <separator name="electronic exchange-correlation" >
    <i type="logical" name="LASPH"> F  </i>
    <i type="logical" name="LMETAGGA"> F  </i>
   </separator>
   <separator name="electronic convergence" >
    <i type="int" name="NELM">    60</i>
    <i type="int" name="NELMDL">    -5</i>
    <i type="int" name="NELMIN">     2</i>
    <i name="ENINI">    367.94500000</i>
    <separator name="electronic convergence detail" >
     <i type="logical" name="LDIAG"> T  </i>
     <i type="logical" name="LSUBROT"> F  </i>
     <i name="WEIMIN">      0.00100000</i>
     <i name="EBREAK">      0.00000000</i>
     <i name="DEPER">      0.30000000</i>
     <i type="int" name="NRMM">     4</i>
     <i name="TIME">      0.40000000</i>
    </separator>
   </separator>
   <separator name="electronic mixer" >
    <i name="AMIX">      0.40000000</i>
    <i name="BMIX">      1.00000000</i>
    <i name="AMIN">      0.10000000</i>
    <i name="AMIX_MAG">      1.60000000</i>
    <i name="BMIX_MAG">      1.00000000</i>
    <separator name="electronic mixer details" >
     <i type="int" name="IMIX">     4</i>
     <i type="logical" name="MIXFIRST"> F  </i>
     <i type="int" name="MAXMIX">   -45</i>
     <i name="WC">    100.00000000</i>
     <i type="int" name="INIMIX">     1</i>
     <i type="int" name="MIXPRE">     1</i>
     <i type="int" name="MREMOVE">     5</i>
    </separator>
   </separator>
   <separator name="electronic dipolcorrection" >
    <i type="logical" name="LDIPOL"> F  </i>
    <i type="logical" name="LMONO"> F  </i>
    <i type="int" name="IDIPOL">     0</i>
    <i name="EPSILON">      1.00000000</i>
    <v name="DIPOL">   -100.00000000   -100.00000000   -100.00000000</v>
    <i name="EFIELD">      0.00000000</i>
   </separator>
  </separator>
  <separator name="grids" >
   <i type="int" name="NGX">    70</i>
   <i type="int" name="NGY">    70</i>
   <i type="int" name="NGZ">    70</i>
   <i type="int" name="NGXF">   140</i>
   <i type="int" name="NGYF">   140</i>
   <i type="int" name="NGZF">   140</i>
   <i type="logical" name="ADDGRID"> F  </i>
  </separator>
  <separator name="ionic" >
   <i type="int" name="NSW">   805</i>
   <i type="int" name="IBRION">     6</i>
   <i type="int" name="ISIF">     2</i>
   <i name="PSTRESS">      0.00000000</i>
   <i name="EDIFFG">      0.00001000</i>
   <i type="int" name="NFREE">     4</i>
   <i name="POTIM">      0.50000000</i>
   <i name="SMASS">     -3.00000000</i>
   <i name="SCALEE">      1.00000000</i>
  </separator>
  <separator name="ionic md" >
   <i name="TEBEG">      0.00010000</i>
   <i name="TEEND">      0.00010000</i>
   <i type="int" name="NBLOCK">     1</i>
   <i type="int" name="KBLOCK">     1</i>
   <i type="int" name="NPACO">   256</i>
   <i name="APACO">     16.00000000</i>
  </separator>
  <separator name="symmetry" >
   <i type="int" name="ISYM">     2</i>
   <i name="SYMPREC">      0.00001000</i>
  </separator>
  <separator name="dos" >
   <i type="logical" name="LORBIT"> F  </i>
   <v name="RWIGS">     -1.00000000</v>
   <i type="int" name="NEDOS">   301</i>
   <i name="EMIN">     10.00000000</i>
   <i name="EMAX">    -10.00000000</i>
   <i name="EFERMI">      0.00000000</i>
  </separator>
  <separator name="writing" >
   <i type="int" name="NWRITE">     0</i>
   <i type="logical" name="LWAVE"> T  </i>
   <i type="logical" name="LCHARG"> T  </i>
   <i type="logical" name="LPARD"> F  </i>
   <i type="logical" name="LVTOT"> F  </i>
   <i type="logical" name="LVHAR"> F  </i>
   <i type="logical" name="LELF"> F  </i>
   <i type="logical" name="LOPTICS"> F  </i>
   <v name="STM">      0.00000000      0.00000000      0.00000000      0.00000000      0.00000000      0.00000000      0.00000000</v>
  </separator>
  <separator name="performance" >
   <i type="int" name="NPAR">     1</i>
   <i type="int" name="NSIM">     4</i>
   <i type="int" name="NBLK">    -1</i>
   <i type="logical" name="LPLANE"> T  </i>
   <i type="logical" name="LSCALAPACK"> T  </i>
   <i type="logical" name="LSCAAWARE"> F  </i>
   <i type="logical" name="LSCALU"> F  </i>
   <i type="logical" name="LASYNC"> F  </i>
   <i type="logical" name="LORBITALREAL"> F  </i>
  </separator>
  <separator name="miscellaneous" >
   <i type="int" name="IDIOT">     3</i>
   <i type="logical" name="LMUSIC"> F  </i>
   <v name="POMASS">     58.69000000</v>
   <v name="DARWINR">      0.00000000</v>
   <v name="DARWINV">      1.00000000</v>
   <i type="logical" name="LCORR"> T  </i>
  </separator>
  <i type="logical" name="GGA_COMPAT"> T  </i>
  <i type="logical" name="LBERRY"> F  </i>
  <i type="int" name="ICORELEVEL">     0</i>
  <i type="logical" name="LDAU"> F  </i>
  <i type="int" name="I_CONSTRAINED_M">     0</i>
  <separator name="electronic exchange-correlation" >
   <i type="string" name="GGA">--</i>
   <i type="int" name="VOSKOWN">     0</i>
   <i type="logical" name="LHFCALC"> F  </i>
   <i type="string" name="PRECFOCK"></i>
   <i type="logical" name="LSYMGRAD"> F  </i>
   <i type="logical" name="LHFONE"> F  </i>
   <i type="logical" name="LRHFCALC"> F  </i>
   <i type="logical" name="LTHOMAS"> F  </i>
   <i type="logical" name="LMODELHF"> F  </i>
   <i name="ENCUT4O">     -1.00000000</i>
   <i type="int" name="EXXOEP">     0</i>
   <i type="int" name="FOURORBIT">     0</i>
   <i name="AEXX">      0.00000000</i>
   <i name="HFALPHA">      0.00000000</i>
   <i name="MCALPHA">      0.00000000</i>
   <i name="ALDAX">      1.00000000</i>
   <i name="AGGAX">      1.00000000</i>
   <i name="ALDAC">      1.00000000</i>
   <i name="AGGAC">      1.00000000</i>
   <i type="int" name="NKREDX">     1</i>
   <i type="int" name="NKREDY">     1</i>
   <i type="int" name="NKREDZ">     1</i>
   <i type="logical" name="SHIFTRED"> F  </i>
   <i type="logical" name="ODDONLY"> F  </i>
   <i type="logical" name="EVENONLY"> F  </i>
   <i type="int" name="LMAXFOCK">     0</i>
   <i type="int" name="NMAXFOCKAE">     0</i>
   <i type="logical" name="LFOCKAEDFT"> F  </i>
   <i name="HFSCREEN">      0.00000000</i>
   <i name="HFSCREENC">      0.00000000</i>
   <i type="int" name="NBANDSGWLOW">     0</i>
  </separator>
  <separator name="vdW DFT" >
   <i type="logical" name="LUSE_VDW"> F  </i>
   <i name="Zab_VDW">     -0.84910000</i>
   <i name="PARAM1">      0.12340000</i>
   <i name="PARAM2">      1.00000000</i>
   <i name="PARAM3">      0.00000000</i>
  </separator>
  <separator name="model GW" >
   <i type="int" name="MODEL_GW">     0</i>
   <i name="MODEL_EPS0">      7.49751761</i>
   <i name="MODEL_ALPHA">      1.00000000</i>
  </separator>
  <separator name="linear response parameters" >
   <i type="logical" name="LEPSILON"> F  </i>
   <i type="logical" name="LRPA"> F  </i>
   <i type="logical" name="LNABLA"> F  </i>
   <i type="logical" name="LVEL"> F  </i>
   <i type="int" name="KINTER">     0</i>
   <i name="CSHIFT">      0.10000000</i>
   <i name="OMEGAMAX">     -1.00000000</i>
   <i name="DEG_THRESHOLD">      0.00200000</i>
  </separator>
  <separator name="orbital magnetization" >
   <i type="logical" name="NUCIND"> F  </i>
   <v name="MAGPOS">      0.00000000      0.00000000      0.00000000</v>
   <i type="logical" name="LNICSALL"> T  </i>
   <i type="logical" name="ORBITALMAG"> F  </i>
   <i type="logical" name="LMAGBLOCH"> F  </i>
   <i type="logical" name="LCHIMAG"> F  </i>
   <i type="logical" name="LGAUGE"> T  </i>
   <i type="int" name="MAGATOM">     0</i>
   <v name="MAGDIPOL">      0.00000000      0.00000000      0.00000000</v>
   <v name="AVECCONST">      0.00000000      0.00000000      0.00000000</v>
  </separator>
  <separator name="response functions" >
   <i type="logical" name="LADDER"> F  </i>
   <i type="logical" name="LFXC"> F  </i>
   <i type="logical" name="LHARTREE"> T  </i>
   <i type="int" name="IBSE">     0</i>
   <v type="int" name="KPOINT">    -1     0     0     0</v>
   <i type="logical" name="LTCTE"> F  </i>
   <i type="logical" name="LTETE"> F  </i>
   <i type="logical" name="LTRIPLET"> F  </i>
   <i type="logical" name="LFXCEPS"> F  </i>
   <i type="logical" name="LFXHEG"> F  </i>
   <i type="int" name="NATURALO">     0</i>
   <i type="logical" name="L2ORDER"> F  </i>
   <i type="logical" name="LUSEW"> F  </i>
   <i name="ENCUTGW">     -2.00000000</i>
   <i name="ENCUTGWSOFT">     -2.00000000</i>
   <i name="ENCUTLF">     -1.00000000</i>
   <i type="int" name="LMAXMP2">    -1</i>
   <i name="SCISSOR">      0.00000000</i>
   <i type="int" name="NOMEGA">     0</i>
   <i type="int" name="NOMEGAR">     0</i>
   <i type="int" name="NBANDSGW">    -1</i>
   <i type="int" name="NBANDSO">    -1</i>
   <i type="int" name="NBANDSV">    -1</i>
   <i type="int" name="NELM">     1</i>
   <i type="int" name="NELMHF">     1</i>
   <i type="int" name="DIM">     3</i>
   <i type="int" name="ANTIRES">     0</i>
   <i name="OMEGAMAX">    -30.00000000</i>
   <i name="OMEGAMIN">    -30.00000000</i>
   <i name="OMEGATL">   -200.00000000</i>
   <i type="int" name="OMEGAGRID">     0</i>
   <i name="CSHIFT">     -0.10000000</i>
   <i type="logical" name="SELFENERGY"> F  </i>
   <i type="logical" name="LSPECTRAL"> F  </i>
   <i type="logical" name="LSPECTRALGW"> F  </i>
   <i type="logical" name="LSINGLES"> F  </i>
   <i type="logical" name="LFERMIGW"> F  </i>
   <i type="logical" name="ODDONLYGW"> F  </i>
   <i type="logical" name="EVENONLYGW"> F  </i>
   <i type="int" name="NKREDLFX">     1</i>
   <i type="int" name="NKREDLFY">     1</i>
   <i type="int" name="NKREDLFZ">     1</i>
   <i type="int" name="MAXMEM">  1800</i>
   <i type="int" name="TELESCOPE">     0</i>
   <i type="int" name="TAUPAR">     1</i>
   <i type="int" name="OMEGAPAR">    -1</i>
   <i name="LAMBDA">      1.00000000</i>
  </separator>
  <separator name="External order field" >
   <i name="OFIELD_KAPPA">      0.00000000</i>
   <v name="OFIELD_K">      0.00000000      0.00000000      0.00000000</v>
   <i name="OFIELD_Q6_NEAR">      0.00000000</i>
   <i name="OFIELD_Q6_FAR">      0.00000000</i>
   <i name="OFIELD_A">      0.00000000</i>
  </separator>
 </parameters>
 <atominfo>
  <atoms>      64 </atoms>
  <types>       1 </types>
  <array name="atoms" >
   <dimension dim="1">ion</dimension>
   <field type="string">element</field>
   <field type="int">atomtype</field>
   <set>
    <rc><c>Ni</c><c>   1</c></rc>
    <rc><c>Ni</c><c>   1</c></rc>
    <rc><c>Ni</c><c>   1</c></rc>
    <rc><c>Ni</c><c>   1</c></rc>
    <rc><c>Ni</c><c>   1</c></rc>
    <rc><c>Ni</c><c>   1</c></rc>
    <rc><c>Ni</c><c>   1</c></rc>
    <rc><c>Ni</c><c>   1</c></rc>
    <rc><c>Ni</c><c>   1</c></rc>
    <rc><c>Ni</c><c>   1</c></rc>
    <rc><c>Ni</c><c>   1</c></rc>
    <rc><c>Ni</c><c>   1</c></rc>
    <rc><c>Ni</c><c>   1</c></rc>
    <rc><c>Ni</c><c>   1</c></rc>
    <rc><c>Ni</c><c>   1</c></rc>
    <rc><c>Ni</c><c>   1</c></rc>
    <rc><c>Ni</c><c>   1</c></rc>
    <rc><c>Ni</c><c>   1</c></rc>
    <rc><c>Ni</c><c>   1</c></rc>
    <rc><c>Ni</c><c>   1</c></rc>
    <rc><c>Ni</c><c>   1</c></rc>
    <rc><c>Ni</c><c>   1</c></rc>
    <rc><c>Ni</c><c>   1</c></rc>
    <rc><c>Ni</c><c>   1</c></rc>
    <rc><c>Ni</c><c>   1</c></rc>
    <rc><c>Ni</c><c>   1</c></rc>
    <rc><c>Ni</c><c>   1</c></rc>
    <rc><c>Ni</c><c>   1</c></rc>
    <rc><c>Ni</c><c>   1</c></rc>
    <rc><c>Ni</c><c>   1</c></rc>
    <rc><c>Ni</c><c>   1</c></rc>
    <rc><c>Ni</c><c>   1</c></rc>
    <rc><c>Ni</c><c>   1</c></rc>
    <rc><c>Ni</c><c>   1</c></rc>
    <rc><c>Ni</c><c>   1</c></rc>
    <rc><c>Ni</c><c>   1</c></rc>
    <rc><c>Ni</c><c>   1</c></rc>
    <rc><c>Ni</c><c>   1</c></rc>
    <rc><c>Ni</c><c>   1</c></rc>
    <rc><c>Ni</c><c>   1</c></rc>
    <rc><c>Ni</c><c>   1</c></rc>
    <rc><c>Ni</c><c>   1</c></rc>
    <rc><c>Ni</c><c>   1</c></rc>
    <rc><c>Ni</c><c>   1</c></rc>
    <rc><c>Ni</c><c>   1</c></rc>
    <rc><c>Ni</c><c>   1</c></rc>
    <rc><c>Ni</c><c>   1</c></rc>
    <rc><c>Ni</c><c>   1</c></rc>
    <rc><c>Ni</c><c>   1</c></rc>
    <rc><c>Ni</c><c>   1</c></rc>
    <rc><c>Ni</c><c>   1</c></rc>
    <rc><c>Ni</c><c>   1</c></rc>
    <rc><c>Ni</c><c>   1</c></rc>
    <rc><c>Ni</c><c>   1</c></rc>
    <rc><c>Ni</c><c>   1</c></rc>
    <rc><c>Ni</c><c>   1</c></rc>
    <rc><c>Ni</c><c>   1</c></rc>
    <rc><c>Ni</c><c>   1</c></rc>
    <rc><c>Ni</c><c>   1</c></rc>
    <rc><c>Ni</c><c>   1</c></rc>
    <rc><c>Ni</c><c>   1</c></rc>
    <rc><c>Ni</c><c>   1</c></rc>
    <rc><c>Ni</c><c>   1</c></rc>
    <rc><c>Ni</c><c>   1</c></rc>
   </set>
  </array>
  <array name="atomtypes" >
   <dimension dim="1">type</dimension>
   <field type="int">atomspertype</field>
   <field type="string">element</field>
   <field>mass</field>
   <field>valence</field>
   <field type="string">pseudopotential</field>
   <set>
    <rc><c>  64</c><c>Ni</c><c>     58.69000000</c><c>     16.00000000</c><c> PAW_PBE Ni_pv 06Sep2000                </c></rc>
   </set>
  </array>
 </atominfo>
 <structure name="initialpos" >
  <crystal>
   <varray name="basis" >
    <v>       0.00000000       7.36725000       7.36725000 </v>
    <v>       7.36725000       0.00000000       7.36725000 </v>
    <v>       7.36725000       7.36725000       0.00000000 </v>
   </varray>
   <i name="volume">    799.73521152 </i>
   <varray name="rec_basis" >
    <v>      -0.06786793       0.06786793       0.06786793 </v>
    <v>       0.06786793      -0.06786793       0.06786793 </v>
    <v>       0.06786793       0.06786793      -0.06786793 </v>
   </varray>
  </crystal>
  <varray name="positions" >
   <v>       0.00000000       0.00000000       0.00000000 </v>
   <v>       0.00000000       0.00000000       0.25000000 </v>
   <v>       0.00000000       0.00000000       0.50000000 </v>
   <v>       0.00000000       0.00000000       0.75000000 </v>
   <v>       0.00000000       0.25000000       0.00000000 </v>
   <v>       0.00000000       0.25000000       0.25000000 </v>
   <v>       0.00000000       0.25000000       0.50000000 </v>
   <v>       0.00000000       0.25000000       0.75000000 </v>
   <v>       0.00000000       0.50000000       0.00000000 </v>
   <v>       0.00000000       0.50000000       0.25000000 </v>
   <v>       0.00000000       0.50000000       0.50000000 </v>
   <v>       0.00000000       0.50000000       0.75000000 </v>
   <v>       0.00000000       0.75000000       0.00000000 </v>
   <v>       0.00000000       0.75000000       0.25000000 </v>
   <v>       0.00000000       0.75000000       0.50000000 </v>
   <v>       0.00000000       0.75000000       0.75000000 </v>
   <v>       0.25000000       0.00000000       0.00000000 </v>
   <v>       0.25000000       0.00000000       0.25000000 </v>
   <v>       0.25000000       0.00000000       0.50000000 </v>
   <v>       0.25000000       0.00000000       0.75000000 </v>
   <v>       0.25000000       0.25000000       0.00000000 </v>
   <v>       0.25000000       0.25000000       0.25000000 </v>
   <v>       0.25000000       0.25000000       0.50000000 </v>
   <v>       0.25000000       0.25000000       0.75000000 </v>
   <v>       0.25000000       0.50000000       0.00000000 </v>
   <v>       0.25000000       0.50000000       0.25000000 </v>
   <v>       0.25000000       0.50000000       0.50000000 </v>
   <v>       0.25000000       0.50000000       0.75000000 </v>
   <v>       0.25000000       0.75000000       0.00000000 </v>
   <v>       0.25000000       0.75000000       0.25000000 </v>
   <v>       0.25000000       0.75000000       0.50000000 </v>
   <v>       0.25000000       0.75000000       0.75000000 </v>
   <v>       0.50000000       0.00000000       0.00000000 </v>
   <v>       0.50000000       0.00000000       0.25000000 </v>
   <v>       0.50000000       0.00000000       0.50000000 </v>
   <v>       0.50000000       0.00000000       0.75000000 </v>
   <v>       0.50000000       0.25000000       0.00000000 </v>
   <v>       0.50000000       0.25000000       0.25000000 </v>
   <v>       0.50000000       0.25000000       0.50000000 </v>
   <v>       0.50000000       0.25000000       0.75000000 </v>
   <v>       0.50000000       0.50000000       0.00000000 </v>
   <v>       0.50000000       0.50000000       0.25000000 </v>
   <v>       0.50000000       0.50000000       0.50000000 </v>
   <v>       0.50000000       0.50000000       0.75000000 </v>
   <v>       0.50000000       0.75000000       0.00000000 </v>
   <v>       0.50000000       0.75000000       0.25000000 </v>
   <v>       0.50000000       0.75000000       0.50000000 </v>
   <v>       0.50000000       0.75000000       0.75000000 </v>
   <v>       0.75000000       0.00000000       0.00000000 </v>
   <v>       0.75000000       0.00000000       0.25000000 </v>
   <v>       0.75000000       0.00000000       0.50000000 </v>
   <v>       0.75000000       0.00000000       0.75000000 </v>
   <v>       0.75000000       0.25000000       0.00000000 </v>
   <v>       0.75000000       0.25000000       0.25000000 </v>
   <v>       0.75000000       0.25000000       0.50000000 </v>
   <v>       0.75000000       0.25000000       0.75000000 </v>
   <v>       0.75000000       0.50000000       0.00000000 </v>
   <v>       0.75000000       0.50000000       0.25000000 </v>
   <v>       0.75000000       0.50000000       0.50000000 </v>
   <v>       0.75000000       0.50000000       0.75000000 </v>
   <v>       0.75000000       0.75000000       0.00000000 </v>
   <v>       0.75000000       0.75000000       0.25000000 </v>
   <v>       0.75000000       0.75000000       0.50000000 </v>
   <v>       0.75000000       0.75000000       0.75000000 </v>
  </varray>
 </structure>
 <calculation>
  <scstep>
   <time name="dav">  614.09  613.59</time>
   <time name="total">  617.62  617.11</time>
   <energy>
    <i name="alphaZ">   8628.10280496 </i>
    <i name="ewald">-146823.96742896 </i>
    <i name="hartreedc"> -65868.69495599 </i>
    <i name="XCdc">   5689.77156658 </i>
    <i name="pawpsdc"> 172361.15642774 </i>
    <i name="pawaedc">-181272.45834873 </i>
    <i name="eentropy">     -0.00781387 </i>
    <i name="bandstr">  -3258.21624206 </i>
    <i name="atom"> 224013.29143063 </i>
    <i name="e_fr_energy">  13468.97744031 </i>
    <i name="e_wo_entrp">  13468.98525418 </i>
    <i name="e_0_energy">  13468.98004493 </i>
   </energy>
  </scstep>
  <scstep>
   <time name="dav">  541.42  540.97</time>
   <time name="total">  541.43  540.99</time>
   <energy>
    <i name="e_fr_energy">    707.09602047 </i>
    <i name="e_wo_entrp">    707.09591101 </i>
    <i name="e_0_energy">    707.09598398 </i>
   </energy>
  </scstep>
  <scstep>
   <time name="dav">  558.36  557.91</time>
   <time name="total">  558.38  557.92</time>
   <energy>
    <i name="e_fr_energy">   -366.58083557 </i>
    <i name="e_wo_entrp">   -366.77114460 </i>
    <i name="e_0_energy">   -366.64427192 </i>
   </energy>
  </scstep>
  <scstep>
   <time name="dav">  574.41  573.94</time>
   <time name="total">  574.43  573.96</time>
   <energy>
    <i name="e_fr_energy">   -423.20764270 </i>
    <i name="e_wo_entrp">   -423.38708966 </i>
    <i name="e_0_energy">   -423.26745835 </i>
   </energy>
  </scstep>
  <scstep>
   <time name="dav">  553.10  552.65</time>
   <time name="total">  583.38  582.90</time>
   <energy>
    <i name="e_fr_energy">   -424.07246322 </i>
    <i name="e_wo_entrp">   -424.25202487 </i>
    <i name="e_0_energy">   -424.13231710 </i>
   </energy>
  </scstep>
  <scstep>
   <time name="dav">  547.54  547.10</time>
   <time name="total">  579.48  579.01</time>
   <energy>
    <i name="e_fr_energy">   -400.40573962 </i>
    <i name="e_wo_entrp">   -399.90129838 </i>
    <i name="e_0_energy">   -400.23759254 </i>
   </energy>
  </scstep>
  <scstep>
   <time name="dav">  542.25  541.81</time>
   <time name="total">  575.30  574.83</time>
   <energy>
    <i name="e_fr_energy">   -361.78470305 </i>
    <i name="e_wo_entrp">   -361.72124648 </i>
    <i name="e_0_energy">   -361.76355086 </i>
   </energy>
  </scstep>
  <scstep>
   <time name="dav">  545.40  544.96</time>
   <time name="total">  577.83  577.35</time>
   <energy>
    <i name="e_fr_energy">   -361.99571094 </i>
    <i name="e_wo_entrp">   -361.94984064 </i>
    <i name="e_0_energy">   -361.98042084 </i>
   </energy>
  </scstep>
  <scstep>
   <time name="dav">  538.29  537.85</time>
   <time name="total">  568.93  568.46</time>
   <energy>
    <i name="e_fr_energy">   -361.88023740 </i>
    <i name="e_wo_entrp">   -361.82598636 </i>
    <i name="e_0_energy">   -361.86215372 </i>
   </energy>
  </scstep>
  <scstep>
   <time name="dav">  556.84  556.39</time>
   <time name="total">  588.53  588.05</time>
   <energy>
    <i name="e_fr_energy">   -361.88636014 </i>
    <i name="e_wo_entrp">   -361.83282294 </i>
    <i name="e_0_energy">   -361.86851441 </i>
   </energy>
  </scstep>
  <scstep>
   <time name="dav">  548.35  547.90</time>
   <time name="total">  582.60  582.13</time>
   <energy>
    <i name="e_fr_energy">   -361.89070886 </i>
    <i name="e_wo_entrp">   -361.83836110 </i>
    <i name="e_0_energy">   -361.87325961 </i>
   </energy>
  </scstep>
  <scstep>
   <time name="dav">  554.25  553.80</time>
   <time name="total">  588.33  587.85</time>
   <energy>
    <i name="e_fr_energy">   -361.89068500 </i>
    <i name="e_wo_entrp">   -361.83687187 </i>
    <i name="e_0_energy">   -361.87274729 </i>
   </energy>
  </scstep>
  <scstep>
   <time name="dav">  559.04  558.59</time>
   <time name="total">  593.27  592.78</time>
   <energy>
    <i name="e_fr_energy">   -361.89068068 </i>
    <i name="e_wo_entrp">   -361.83672945 </i>
    <i name="e_0_energy">   -361.87269694 </i>
   </energy>
  </scstep>
  <scstep>
   <time name="dav">  440.26  439.90</time>
   <time name="total">  473.78  473.39</time>
   <energy>
    <i name="e_fr_energy">   -361.89065982 </i>
    <i name="e_wo_entrp">   -361.83678369 </i>
    <i name="e_0_energy">   -361.87270111 </i>
   </energy>
  </scstep>
  <scstep>
   <time name="dav">  365.34  365.05</time>
   <time name="total">  399.85  399.53</time>
   <energy>
    <i name="e_fr_energy">   -361.89065155 </i>
    <i name="e_wo_entrp">   -361.83683509 </i>
    <i name="e_0_energy">   -361.87271273 </i>
   </energy>
  </scstep>
  <scstep>
   <time name="dav">  341.43  341.15</time>
   <time name="total">  344.98  344.70</time>
   <energy>
    <i name="alphaZ">   8628.10280496 </i>
    <i name="ewald">-146823.96742896 </i>
    <i name="hartreedc"> -63570.83072992 </i>
    <i name="XCdc">   5605.13973327 </i>
    <i name="pawpsdc"> 170752.45489973 </i>
    <i name="pawaedc">-179778.99754216 </i>
    <i name="eentropy">     -0.05381579 </i>
    <i name="bandstr"> -19187.03000373 </i>
    <i name="atom"> 224013.29143063 </i>
    <i name="e_fr_energy">   -361.89065196 </i>
    <i name="e_wo_entrp">   -361.83683617 </i>
    <i name="e_0_energy">   -361.87271336 </i>
   </energy>
  </scstep>
  <structure>
   <crystal>
    <varray name="basis" >
     <v>       0.00000000       7.36725000       7.36725000 </v>
     <v>       7.36725000       0.00000000       7.36725000 </v>
     <v>       7.36725000       7.36725000       0.00000000 </v>
    </varray>
    <i name="volume">    799.73521152 </i>
    <varray name="rec_basis" >
     <v>      -0.06786793       0.06786793       0.06786793 </v>
     <v>       0.06786793      -0.06786793       0.06786793 </v>
     <v>       0.06786793       0.06786793      -0.06786793 </v>
    </varray>
   </crystal>
   <varray name="positions" >
    <v>       0.00000000       0.00000000       0.00000000 </v>
    <v>       0.00000000       0.00000000       0.25000000 </v>
    <v>       0.00000000       0.00000000       0.50000000 </v>
    <v>       0.00000000       0.00000000       0.75000000 </v>
    <v>       0.00000000       0.25000000       0.00000000 </v>
    <v>       0.00000000       0.25000000       0.25000000 </v>
    <v>       0.00000000       0.25000000       0.50000000 </v>
    <v>       0.00000000       0.25000000       0.75000000 </v>
    <v>       0.00000000       0.50000000       0.00000000 </v>
    <v>       0.00000000       0.50000000       0.25000000 </v>
    <v>       0.00000000       0.50000000       0.50000000 </v>
    <v>       0.00000000       0.50000000       0.75000000 </v>
    <v>       0.00000000       0.75000000       0.00000000 </v>
    <v>       0.00000000       0.75000000       0.25000000 </v>
    <v>       0.00000000       0.75000000       0.50000000 </v>
    <v>       0.00000000       0.75000000       0.75000000 </v>
    <v>       0.25000000       0.00000000       0.00000000 </v>
    <v>       0.25000000       0.00000000       0.25000000 </v>
    <v>       0.25000000       0.00000000       0.50000000 </v>
    <v>       0.25000000       0.00000000       0.75000000 </v>
    <v>       0.25000000       0.25000000       0.00000000 </v>
    <v>       0.25000000       0.25000000       0.25000000 </v>
    <v>       0.25000000       0.25000000       0.50000000 </v>
    <v>       0.25000000       0.25000000       0.75000000 </v>
    <v>       0.25000000       0.50000000       0.00000000 </v>
    <v>       0.25000000       0.50000000       0.25000000 </v>
    <v>       0.25000000       0.50000000       0.50000000 </v>
    <v>       0.25000000       0.50000000       0.75000000 </v>
    <v>       0.25000000       0.75000000       0.00000000 </v>
    <v>       0.25000000       0.75000000       0.25000000 </v>
    <v>       0.25000000       0.75000000       0.50000000 </v>
    <v>       0.25000000       0.75000000       0.75000000 </v>
    <v>       0.50000000       0.00000000       0.00000000 </v>
    <v>       0.50000000       0.00000000       0.25000000 </v>
    <v>       0.50000000       0.00000000       0.50000000 </v>
    <v>       0.50000000       0.00000000       0.75000000 </v>
    <v>       0.50000000       0.25000000       0.00000000 </v>
    <v>       0.50000000       0.25000000       0.25000000 </v>
    <v>       0.50000000       0.25000000       0.50000000 </v>
    <v>       0.50000000       0.25000000       0.75000000 </v>
    <v>       0.50000000       0.50000000       0.00000000 </v>
    <v>       0.50000000       0.50000000       0.25000000 </v>
    <v>       0.50000000       0.50000000       0.50000000 </v>
    <v>       0.50000000       0.50000000       0.75000000 </v>
    <v>       0.50000000       0.75000000       0.00000000 </v>
    <v>       0.50000000       0.75000000       0.25000000 </v>
    <v>       0.50000000       0.75000000       0.50000000 </v>
    <v>       0.50000000       0.75000000       0.75000000 </v>
    <v>       0.75000000       0.00000000       0.00000000 </v>
    <v>       0.75000000       0.00000000       0.25000000 </v>
    <v>       0.75000000       0.00000000       0.50000000 </v>
    <v>       0.75000000       0.00000000       0.75000000 </v>
    <v>       0.75000000       0.25000000       0.00000000 </v>
    <v>       0.75000000       0.25000000       0.25000000 </v>
    <v>       0.75000000       0.25000000       0.50000000 </v>
    <v>       0.75000000       0.25000000       0.75000000 </v>
    <v>       0.75000000       0.50000000       0.00000000 </v>
    <v>       0.75000000       0.50000000       0.25000000 </v>
    <v>       0.75000000       0.50000000       0.50000000 </v>
    <v>       0.75000000       0.50000000       0.75000000 </v>
    <v>       0.75000000       0.75000000       0.00000000 </v>
    <v>       0.75000000       0.75000000       0.25000000 </v>
    <v>       0.75000000       0.75000000       0.50000000 </v>
    <v>       0.75000000       0.75000000       0.75000000 </v>
   </varray>
  </structure>
  <varray name="forces" >
   <v>      -0.00000000      -0.00000000       0.00000000 </v>
   <v>      -0.00000000      -0.00000000       0.00000000 </v>
   <v>       0.00000000       0.00000000      -0.00000000 </v>
   <v>      -0.00000000       0.00000000       0.00000000 </v>
   <v>       0.00000000       0.00000000      -0.00000000 </v>
   <v>      -0.00000000      -0.00000000       0.00000000 </v>
   <v>       0.00000000       0.00000000      -0.00000000 </v>
   <v>      -0.00000000      -0.00000000       0.00000000 </v>
   <v>      -0.00000000      -0.00000000       0.00000000 </v>
   <v>      -0.00000000      -0.00000000       0.00000000 </v>
   <v>       0.00000000       0.00000000       0.00000000 </v>
   <v>       0.00000000      -0.00000000       0.00000000 </v>
   <v>       0.00000000      -0.00000000       0.00000000 </v>
   <v>      -0.00000000      -0.00000000       0.00000000 </v>
   <v>       0.00000000       0.00000000      -0.00000000 </v>
   <v>       0.00000000      -0.00000000      -0.00000000 </v>
   <v>       0.00000000      -0.00000000       0.00000000 </v>
   <v>      -0.00000000      -0.00000000       0.00000000 </v>
   <v>       0.00000000      -0.00000000      -0.00000000 </v>
   <v>       0.00000000      -0.00000000       0.00000000 </v>
   <v>       0.00000000       0.00000000       0.00000000 </v>
   <v>      -0.00000000      -0.00000000       0.00000000 </v>
   <v>       0.00000000       0.00000000      -0.00000000 </v>
   <v>       0.00000000      -0.00000000       0.00000000 </v>
   <v>      -0.00000000       0.00000000      -0.00000000 </v>
   <v>      -0.00000000      -0.00000000       0.00000000 </v>
   <v>       0.00000000       0.00000000      -0.00000000 </v>
   <v>       0.00000000      -0.00000000      -0.00000000 </v>
   <v>      -0.00000000      -0.00000000      -0.00000000 </v>
   <v>      -0.00000000      -0.00000000       0.00000000 </v>
   <v>       0.00000000       0.00000000       0.00000000 </v>
   <v>       0.00000000      -0.00000000       0.00000000 </v>
   <v>      -0.00000000       0.00000000      -0.00000000 </v>
   <v>      -0.00000000      -0.00000000       0.00000000 </v>
   <v>       0.00000000       0.00000000      -0.00000000 </v>
   <v>       0.00000000       0.00000000      -0.00000000 </v>
   <v>       0.00000000       0.00000000      -0.00000000 </v>
   <v>      -0.00000000       0.00000000       0.00000000 </v>
   <v>       0.00000000       0.00000000      -0.00000000 </v>
   <v>       0.00000000       0.00000000      -0.00000000 </v>
   <v>      -0.00000000      -0.00000000       0.00000000 </v>
   <v>      -0.00000000      -0.00000000      -0.00000000 </v>
   <v>       0.00000000       0.00000000      -0.00000000 </v>
   <v>      -0.00000000      -0.00000000      -0.00000000 </v>
   <v>       0.00000000      -0.00000000      -0.00000000 </v>
   <v>      -0.00000000      -0.00000000       0.00000000 </v>
   <v>       0.00000000      -0.00000000      -0.00000000 </v>
   <v>      -0.00000000       0.00000000      -0.00000000 </v>
   <v>      -0.00000000       0.00000000      -0.00000000 </v>
   <v>      -0.00000000      -0.00000000       0.00000000 </v>
   <v>       0.00000000       0.00000000      -0.00000000 </v>
   <v>      -0.00000000       0.00000000       0.00000000 </v>
   <v>      -0.00000000       0.00000000      -0.00000000 </v>
   <v>      -0.00000000      -0.00000000       0.00000000 </v>
   <v>       0.00000000       0.00000000       0.00000000 </v>
   <v>      -0.00000000       0.00000000       0.00000000 </v>
   <v>       0.00000000       0.00000000      -0.00000000 </v>
   <v>      -0.00000000      -0.00000000      -0.00000000 </v>
   <v>       0.00000000       0.00000000      -0.00000000 </v>
   <v>       0.00000000      -0.00000000      -0.00000000 </v>
   <v>      -0.00000000      -0.00000000      -0.00000000 </v>
   <v>      -0.00000000      -0.00000000       0.00000000 </v>
   <v>       0.00000000       0.00000000      -0.00000000 </v>
   <v>      -0.00000000      -0.00000000      -0.00000000 </v>
  </varray>
  <varray name="stress" >
   <v>    -318.76913562      -0.00000000       0.00000000 </v>
   <v>      -0.00000000    -318.76913562      -0.00000000 </v>
   <v>       0.00000000      -0.00000000    -318.76913562 </v>
  </varray>
  <energy>
   <i name="e_fr_energy">   -361.89065196 </i>
   <i name="e_wo_entrp">   -361.87271336 </i>
   <i name="e_0_energy">     -0.05381579 </i>
  </energy>
  <kpoints>
   <generation param="Gamma">
    <v type="int" name="divisions">       3        3        3 </v>
    <v name="usershift">      0.00000000       0.00000000       0.00000000 </v>
    <v name="genvec1">      0.33333333       0.00000000       0.00000000 </v>
    <v name="genvec2">      0.00000000       0.33333333       0.00000000 </v>
    <v name="genvec3">      0.00000000       0.00000000       0.33333333 </v>
    <v name="shift">      0.00000000       0.00000000       0.00000000 </v>
   </generation>
   <varray name="kpointlist" >
    <v>       0.00000000       0.00000000       0.00000000 </v>
    <v>       0.33333333       0.00000000       0.00000000 </v>
    <v>       0.33333333       0.33333333       0.00000000 </v>
    <v>      -0.33333333       0.33333333       0.00000000 </v>
    <v>       0.00000000       0.33333333       0.33333333 </v>
    <v>      -0.33333333       0.33333333       0.33333333 </v>
   </varray>
   <varray name="weights" >
    <v>       0.03703704 </v>
    <v>       0.29629630 </v>
    <v>       0.14814815 </v>
    <v>       0.29629630 </v>
    <v>       0.07407407 </v>
    <v>       0.14814815 </v>
   </varray>
  </kpoints>
  <time name="totalsc"> 9585.97 9579.19</time>
 </calculation>
 <calculation>
  <scstep>
   <time name="dav"> 1013.57 1012.74</time>
   <time name="total"> 1063.34 1062.47</time>
   <energy>
    <i name="alphaZ">   8628.10280496 </i>
    <i name="ewald">-146823.42007914 </i>
    <i name="hartreedc"> -63571.39102159 </i>
    <i name="XCdc">   5605.14324451 </i>
    <i name="pawpsdc"> 170752.30651208 </i>
    <i name="pawaedc">-179778.85738556 </i>
    <i name="eentropy">     -0.05374558 </i>
    <i name="bandstr"> -19186.67255314 </i>
    <i name="atom"> 224013.29143063 </i>
    <i name="e_fr_energy">   -361.55079283 </i>
    <i name="e_wo_entrp">   -361.49704725 </i>
    <i name="e_0_energy">   -361.53287764 </i>
   </energy>
  </scstep>
  <scstep>
   <time name="dav">  827.22  826.54</time>
   <time name="total">  874.80  874.08</time>
   <energy>
    <i name="e_fr_energy">   -361.90988181 </i>
    <i name="e_wo_entrp">   -361.85648484 </i>
    <i name="e_0_energy">   -361.89208282 </i>
   </energy>
  </scstep>
  <scstep>
   <time name="dav">  959.85  959.06</time>
   <time name="total"> 1006.18 1005.35</time>
   <energy>
    <i name="e_fr_energy">   -361.89304980 </i>
    <i name="e_wo_entrp">   -361.83892244 </i>
    <i name="e_0_energy">   -361.87500734 </i>
   </energy>
  </scstep>
  <scstep>
   <time name="dav">  934.83  934.06</time>
   <time name="total">  982.05  981.24</time>
   <energy>
    <i name="e_fr_energy">   -361.90219344 </i>
    <i name="e_wo_entrp">   -361.84840870 </i>
    <i name="e_0_energy">   -361.88426520 </i>
   </energy>
  </scstep>
  <scstep>
   <time name="dav">  847.76  847.07</time>
   <time name="total">  894.09  893.36</time>
   <energy>
    <i name="e_fr_energy">   -361.88919227 </i>
    <i name="e_wo_entrp">   -361.83532566 </i>
    <i name="e_0_energy">   -361.87123673 </i>
   </energy>
  </scstep>
  <scstep>
   <time name="dav">  963.96  963.17</time>
   <time name="total"> 1009.38 1008.55</time>
   <energy>
    <i name="e_fr_energy">   -361.88892689 </i>
    <i name="e_wo_entrp">   -361.83507024 </i>
    <i name="e_0_energy">   -361.87097467 </i>
   </energy>
  </scstep>
  <scstep>
   <time name="dav">  849.35  848.65</time>
   <time name="total">  893.33  892.60</time>
   <energy>
    <i name="e_fr_energy">   -361.88881459 </i>
    <i name="e_wo_entrp">   -361.83495950 </i>
    <i name="e_0_energy">   -361.87086289 </i>
   </energy>
  </scstep>
  <scstep>
   <time name="dav">  826.15  825.48</time>
   <time name="total">  868.96  868.25</time>
   <energy>
    <i name="e_fr_energy">   -361.88862557 </i>
    <i name="e_wo_entrp">   -361.83477869 </i>
    <i name="e_0_energy">   -361.87067661 </i>
   </energy>
  </scstep>
  <scstep>
   <time name="dav">  841.54  840.85</time>
   <time name="total">  888.04  887.97</time>
   <energy>
    <i name="e_fr_energy">   -361.88871712 </i>
    <i name="e_wo_entrp">   -361.83487428 </i>
    <i name="e_0_energy">   -361.87076951 </i>
   </energy>
  </scstep>
  <scstep>
   <time name="dav">  956.47  955.69</time>
   <time name="total"> 1002.54 1001.72</time>
   <energy>
    <i name="e_fr_energy">   -361.88833713 </i>
    <i name="e_wo_entrp">   -361.83452567 </i>
    <i name="e_0_energy">   -361.87039997 </i>
   </energy>
  </scstep>
  <scstep>
   <time name="dav">  967.67  966.87</time>
   <time name="total"> 1011.95 1011.12</time>
   <energy>
    <i name="e_fr_energy">   -361.88826000 </i>
    <i name="e_wo_entrp">   -361.83444398 </i>
    <i name="e_0_energy">   -361.87032132 </i>
   </energy>
  </scstep>
  <scstep>
   <time name="dav">  991.93  991.12</time>
   <time name="total"> 1039.55 1038.70</time>
   <energy>
    <i name="e_fr_energy">   -361.88827956 </i>
    <i name="e_wo_entrp">   -361.83446060 </i>
    <i name="e_0_energy">   -361.87033991 </i>
   </energy>
  </scstep>
  <scstep>
   <time name="dav">  862.24  861.53</time>
   <time name="total">  906.97  906.22</time>
   <energy>
    <i name="e_fr_energy">   -361.88825448 </i>
    <i name="e_wo_entrp">   -361.83443172 </i>
    <i name="e_0_energy">   -361.87031356 </i>
   </energy>
  </scstep>
  <scstep>
   <time name="dav">  934.09  933.32</time>
   <time name="total">  983.62  982.81</time>
   <energy>
    <i name="e_fr_energy">   -361.88826177 </i>
    <i name="e_wo_entrp">   -361.83444069 </i>
    <i name="e_0_energy">   -361.87032141 </i>
   </energy>
  </scstep>
  <scstep>
   <time name="dav">  818.92  818.25</time>
   <time name="total">  867.98  867.27</time>
   <energy>
    <i name="e_fr_energy">   -361.88825489 </i>
    <i name="e_wo_entrp">   -361.83443110 </i>
    <i name="e_0_energy">   -361.87031363 </i>
   </energy>
  </scstep>
  <scstep>
   <time name="dav">  526.13  525.70</time>
   <time name="total">  529.72  529.29</time>
   <energy>
    <i name="alphaZ">   8628.10280496 </i>
    <i name="ewald">-146823.42007914 </i>
    <i name="hartreedc"> -63571.35001565 </i>
    <i name="XCdc">   5605.14081836 </i>
    <i name="pawpsdc"> 170752.26212609 </i>
    <i name="pawaedc">-179778.81561065 </i>
    <i name="eentropy">     -0.05382260 </i>
    <i name="bandstr"> -19187.04590692 </i>
    <i name="atom"> 224013.29143063 </i>
    <i name="e_fr_energy">   -361.88825494 </i>
    <i name="e_wo_entrp">   -361.83443234 </i>
    <i name="e_0_energy">   -361.87031407 </i>
   </energy>
  </scstep>
  <structure>
   <crystal>
    <varray name="basis" >
     <v>       0.00000000       7.36725000       7.36725000 </v>
     <v>       7.36725000       0.00000000       7.36725000 </v>
     <v>       7.36725000       7.36725000       0.00000000 </v>
    </varray>
    <i name="volume">    799.73521152 </i>
    <varray name="rec_basis" >
     <v>      -0.06786793       0.06786793       0.06786793 </v>
     <v>       0.06786793      -0.06786793       0.06786793 </v>
     <v>       0.06786793       0.06786793      -0.06786793 </v>
    </varray>
   </crystal>
   <varray name="positions" >
    <v>      -0.00203604       0.00203604       0.00203604 </v>
    <v>       0.00000000       0.00000000       0.25000000 </v>
    <v>       0.00000000       0.00000000       0.50000000 </v>
    <v>       0.00000000       0.00000000       0.75000000 </v>
    <v>       0.00000000       0.25000000       0.00000000 </v>
    <v>       0.00000000       0.25000000       0.25000000 </v>
    <v>       0.00000000       0.25000000       0.50000000 </v>
    <v>       0.00000000       0.25000000       0.75000000 </v>
    <v>       0.00000000       0.50000000       0.00000000 </v>
    <v>       0.00000000       0.50000000       0.25000000 </v>
    <v>       0.00000000       0.50000000       0.50000000 </v>
    <v>       0.00000000       0.50000000       0.75000000 </v>
    <v>       0.00000000       0.75000000       0.00000000 </v>
    <v>       0.00000000       0.75000000       0.25000000 </v>
    <v>       0.00000000       0.75000000       0.50000000 </v>
    <v>       0.00000000       0.75000000       0.75000000 </v>
    <v>       0.25000000       0.00000000       0.00000000 </v>
    <v>       0.25000000       0.00000000       0.25000000 </v>
    <v>       0.25000000       0.00000000       0.50000000 </v>
    <v>       0.25000000       0.00000000       0.75000000 </v>
    <v>       0.25000000       0.25000000       0.00000000 </v>
    <v>       0.25000000       0.25000000       0.25000000 </v>
    <v>       0.25000000       0.25000000       0.50000000 </v>
    <v>       0.25000000       0.25000000       0.75000000 </v>
    <v>       0.25000000       0.50000000       0.00000000 </v>
    <v>       0.25000000       0.50000000       0.25000000 </v>
    <v>       0.25000000       0.50000000       0.50000000 </v>
    <v>       0.25000000       0.50000000       0.75000000 </v>
    <v>       0.25000000       0.75000000       0.00000000 </v>
    <v>       0.25000000       0.75000000       0.25000000 </v>
    <v>       0.25000000       0.75000000       0.50000000 </v>
    <v>       0.25000000       0.75000000       0.75000000 </v>
    <v>       0.50000000       0.00000000       0.00000000 </v>
    <v>       0.50000000       0.00000000       0.25000000 </v>
    <v>       0.50000000       0.00000000       0.50000000 </v>
    <v>       0.50000000       0.00000000       0.75000000 </v>
    <v>       0.50000000       0.25000000       0.00000000 </v>
    <v>       0.50000000       0.25000000       0.25000000 </v>
    <v>       0.50000000       0.25000000       0.50000000 </v>
    <v>       0.50000000       0.25000000       0.75000000 </v>
    <v>       0.50000000       0.50000000       0.00000000 </v>
    <v>       0.50000000       0.50000000       0.25000000 </v>
    <v>       0.50000000       0.50000000       0.50000000 </v>
    <v>       0.50000000       0.50000000       0.75000000 </v>
    <v>       0.50000000       0.75000000       0.00000000 </v>
    <v>       0.50000000       0.75000000       0.25000000 </v>
    <v>       0.50000000       0.75000000       0.50000000 </v>
    <v>       0.50000000       0.75000000       0.75000000 </v>
    <v>       0.75000000       0.00000000       0.00000000 </v>
    <v>       0.75000000       0.00000000       0.25000000 </v>
    <v>       0.75000000       0.00000000       0.50000000 </v>
    <v>       0.75000000       0.00000000       0.75000000 </v>
    <v>       0.75000000       0.25000000       0.00000000 </v>
    <v>       0.75000000       0.25000000       0.25000000 </v>
    <v>       0.75000000       0.25000000       0.50000000 </v>
    <v>       0.75000000       0.25000000       0.75000000 </v>
    <v>       0.75000000       0.50000000       0.00000000 </v>
    <v>       0.75000000       0.50000000       0.25000000 </v>
    <v>       0.75000000       0.50000000       0.50000000 </v>
    <v>       0.75000000       0.50000000       0.75000000 </v>
    <v>       0.75000000       0.75000000       0.00000000 </v>
    <v>       0.75000000       0.75000000       0.25000000 </v>
    <v>       0.75000000       0.75000000       0.50000000 </v>
    <v>       0.75000000       0.75000000       0.75000000 </v>
   </varray>
  </structure>
  <varray name="forces" >
   <v>      -0.15893789      -0.00000000       0.00000000 </v>
   <v>       0.01685742       0.01786064       0.00000000 </v>
   <v>       0.00051994       0.00029568       0.00000000 </v>
   <v>       0.01490482       0.01537571       0.00000000 </v>
   <v>       0.01685742      -0.00000000       0.01786064 </v>
   <v>       0.00204137       0.00120406       0.00120406 </v>
   <v>       0.00051914       0.00111397      -0.00050903 </v>
   <v>       0.00106012       0.00014790      -0.00014790 </v>
   <v>       0.00051994      -0.00000000       0.00029568 </v>
   <v>       0.00051914      -0.00050903       0.00111397 </v>
   <v>      -0.00000477      -0.00000000       0.00000000 </v>
   <v>       0.00057141      -0.00056444       0.00120613 </v>
   <v>       0.01490482      -0.00000000       0.01537571 </v>
   <v>       0.00106012      -0.00014790       0.00014790 </v>
   <v>       0.00057141       0.00120613      -0.00056444 </v>
   <v>       0.00192438       0.00110837       0.00110837 </v>
   <v>       0.00106012      -0.00014790      -0.00014790 </v>
   <v>       0.00057141       0.00120613       0.00056444 </v>
   <v>       0.00192438       0.00110837      -0.00110837 </v>
   <v>       0.01490482      -0.00000000      -0.01537571 </v>
   <v>       0.00057141       0.00056444       0.00120613 </v>
   <v>       0.00059137      -0.00000000       0.00000000 </v>
   <v>       0.00051914       0.00050903      -0.00111397 </v>
   <v>      -0.00121206      -0.00000000       0.00005692 </v>
   <v>       0.00192438      -0.00110837       0.00110837 </v>
   <v>       0.00051914      -0.00111397       0.00050903 </v>
   <v>      -0.00040857      -0.00001526      -0.00001526 </v>
   <v>       0.00010062      -0.00000000      -0.00015511 </v>
   <v>       0.01490482      -0.01537571       0.00000000 </v>
   <v>      -0.00121206       0.00005692       0.00000000 </v>
   <v>       0.00010062      -0.00015511       0.00000000 </v>
   <v>       0.00319447      -0.00000000       0.00000000 </v>
   <v>      -0.00000477      -0.00000000       0.00000000 </v>
   <v>       0.00057141      -0.00056444      -0.00120613 </v>
   <v>       0.00051994      -0.00000000      -0.00029568 </v>
   <v>       0.00051914      -0.00050903      -0.00111397 </v>
   <v>       0.00057141      -0.00120613      -0.00056444 </v>
   <v>       0.00204137      -0.00120406      -0.00120406 </v>
   <v>       0.00005728      -0.00000000       0.00009865 </v>
   <v>      -0.00040857       0.00001526      -0.00001526 </v>
   <v>       0.00051994      -0.00029568       0.00000000 </v>
   <v>       0.00005728       0.00009865       0.00000000 </v>
   <v>      -0.00074170      -0.00000000       0.00000000 </v>
   <v>       0.00010062       0.00015511       0.00000000 </v>
   <v>       0.00051914      -0.00111397      -0.00050903 </v>
   <v>      -0.00040857      -0.00001526       0.00001526 </v>
   <v>       0.00010062      -0.00000000       0.00015511 </v>
   <v>       0.00192438      -0.00110837      -0.00110837 </v>
   <v>       0.00106012       0.00014790       0.00014790 </v>
   <v>       0.01685742      -0.00000000      -0.01786064 </v>
   <v>       0.00204137       0.00120406      -0.00120406 </v>
   <v>       0.00051914       0.00111397       0.00050903 </v>
   <v>       0.01685742      -0.01786064       0.00000000 </v>
   <v>       0.00320626      -0.00000000       0.00000000 </v>
   <v>       0.00005728      -0.00009865       0.00000000 </v>
   <v>      -0.00121206      -0.00005692       0.00000000 </v>
   <v>       0.00204137      -0.00120406       0.00120406 </v>
   <v>       0.00005728      -0.00000000      -0.00009865 </v>
   <v>      -0.00040857       0.00001526       0.00001526 </v>
   <v>       0.00057141      -0.00120613       0.00056444 </v>
   <v>       0.00051914       0.00050903       0.00111397 </v>
   <v>      -0.00121206      -0.00000000      -0.00005692 </v>
   <v>       0.00057141       0.00056444      -0.00120613 </v>
   <v>       0.00059137      -0.00000000       0.00000000 </v>
  </varray>
  <varray name="stress" >
   <v>    -318.73754323       0.00000000       0.00000000 </v>
   <v>       0.00000000    -318.74523752      -0.00000000 </v>
   <v>      -0.00000000      -0.00000000    -318.74523752 </v>
  </varray>
  <energy>
   <i name="e_fr_energy">   -361.88825494 </i>
   <i name="e_wo_entrp">   -361.87031407 </i>
   <i name="e_0_energy">     -0.05382260 </i>
  </energy>
  <kpoints>
   <generation param="Gamma">
    <v type="int" name="divisions">       3        3        3 </v>
    <v name="usershift">      0.00000000       0.00000000       0.00000000 </v>
    <v name="genvec1">      0.33333333       0.00000000       0.00000000 </v>
    <v name="genvec2">      0.00000000       0.33333333       0.00000000 </v>
    <v name="genvec3">      0.00000000       0.00000000       0.33333333 </v>
    <v name="shift">      0.00000000       0.00000000       0.00000000 </v>
   </generation>
   <varray name="kpointlist" >
    <v>       0.00000000       0.00000000       0.00000000 </v>
    <v>       0.33333333       0.00000000       0.00000000 </v>
    <v>       0.33333333       0.33333333       0.00000000 </v>
    <v>      -0.33333333       0.33333333       0.00000000 </v>
    <v>       0.00000000       0.33333333       0.33333333 </v>
    <v>      -0.33333333       0.33333333       0.33333333 </v>
   </varray>
   <varray name="weights" >
    <v>       0.03703704 </v>
    <v>       0.29629630 </v>
    <v>       0.14814815 </v>
    <v>       0.29629630 </v>
    <v>       0.07407407 </v>
    <v>       0.14814815 </v>
   </varray>
  </kpoints>
  <time name="totalsc">16031.6816019.19</time>
 </calculation>
 <calculation>
  <scstep>
   <time name="dav"> 1009.83 1009.01</time>
   <time name="total"> 1055.80 1054.93</time>
   <energy>
    <i name="alphaZ">   8628.10280496 </i>
    <i name="ewald">-146823.83058530 </i>
    <i name="hartreedc"> -63570.97002054 </i>
    <i name="XCdc">   5605.14041727 </i>
    <i name="pawpsdc"> 170752.26624277 </i>
    <i name="pawaedc">-179778.82013764 </i>
    <i name="eentropy">     -0.05377785 </i>
    <i name="bandstr"> -19186.87612428 </i>
    <i name="atom"> 224013.29143063 </i>
    <i name="e_fr_energy">   -361.74974998 </i>
    <i name="e_wo_entrp">   -361.69597213 </i>
    <i name="e_0_energy">   -361.73182403 </i>
   </energy>
  </scstep>
  <scstep>
   <time name="dav">  802.17  801.52</time>
   <time name="total">  849.96  849.26</time>
   <energy>
    <i name="e_fr_energy">   -361.89142706 </i>
    <i name="e_wo_entrp">   -361.83755306 </i>
    <i name="e_0_energy">   -361.87346906 </i>
   </energy>
  </scstep>
  <scstep>
   <time name="dav">  947.00  946.22</time>
   <time name="total">  993.13  992.31</time>
   <energy>
    <i name="e_fr_energy">   -361.89016115 </i>
    <i name="e_wo_entrp">   -361.83623476 </i>
    <i name="e_0_energy">   -361.87218569 </i>
   </energy>
  </scstep>
  <scstep>
   <time name="dav">  936.06  935.29</time>
   <time name="total">  981.39  984.30</time>
   <energy>
    <i name="e_fr_energy">   -361.89187918 </i>
    <i name="e_wo_entrp">   -361.83802047 </i>
    <i name="e_0_energy">   -361.87392627 </i>
   </energy>
  </scstep>
  <scstep>
   <time name="dav">  831.12  830.44</time>
   <time name="total">  875.31  874.59</time>
   <energy>
    <i name="e_fr_energy">   -361.89013296 </i>
    <i name="e_wo_entrp">   -361.83630867 </i>
    <i name="e_0_energy">   -361.87219153 </i>
   </energy>
  </scstep>
  <scstep>
   <time name="dav">  920.60  919.85</time>
   <time name="total">  962.76  961.97</time>
   <energy>
    <i name="e_fr_energy">   -361.89009177 </i>
    <i name="e_wo_entrp">   -361.83627042 </i>
    <i name="e_0_energy">   -361.87215132 </i>
   </energy>
  </scstep>
  <scstep>
   <time name="dav">  866.13  865.42</time>
   <time name="total">  913.51  912.76</time>
   <energy>
    <i name="e_fr_energy">   -361.89008445 </i>
    <i name="e_wo_entrp">   -361.83625808 </i>
    <i name="e_0_energy">   -361.87214233 </i>
   </energy>
  </scstep>
  <scstep>
   <time name="dav">  856.27  855.57</time>
   <time name="total">  903.74  903.00</time>
   <energy>
    <i name="e_fr_energy">   -361.89005558 </i>
    <i name="e_wo_entrp">   -361.83622690 </i>
    <i name="e_0_energy">   -361.87211268 </i>
   </energy>
  </scstep>
  <scstep>
   <time name="dav">  861.55  860.84</time>
   <time name="total">  907.50  906.76</time>
   <energy>
    <i name="e_fr_energy">   -361.89009999 </i>
    <i name="e_wo_entrp">   -361.83627459 </i>
    <i name="e_0_energy">   -361.87215819 </i>
   </energy>
  </scstep>
  <scstep>
   <time name="dav">  920.71  919.95</time>
   <time name="total">  967.12  966.33</time>
   <energy>
    <i name="e_fr_energy">   -361.89003376 </i>
    <i name="e_wo_entrp">   -361.83621456 </i>
    <i name="e_0_energy">   -361.87209403 </i>
   </energy>
  </scstep>
  <scstep>
   <time name="dav">  947.76  946.99</time>
   <time name="total">  994.53  993.71</time>
   <energy>
    <i name="e_fr_energy">   -361.89002520 </i>
    <i name="e_wo_entrp">   -361.83620873 </i>
    <i name="e_0_energy">   -361.87208638 </i>
   </energy>
  </scstep>
  <scstep>
   <time name="dav">  824.10  823.42</time>
   <time name="total">  868.82  868.11</time>
   <energy>
    <i name="e_fr_energy">   -361.89002722 </i>
    <i name="e_wo_entrp">   -361.83621130 </i>
    <i name="e_0_energy">   -361.87208858 </i>
   </energy>
  </scstep>
  <scstep>
   <time name="dav">  673.29  672.74</time>
   <time name="total">  716.07  715.48</time>
   <energy>
    <i name="e_fr_energy">   -361.89002506 </i>
    <i name="e_wo_entrp">   -361.83621117 </i>
    <i name="e_0_energy">   -361.87208710 </i>
   </energy>
  </scstep>
  <scstep>
   <time name="dav">  478.97  478.58</time>
   <time name="total">  482.48  482.08</time>
   <energy>
    <i name="alphaZ">   8628.10280496 </i>
    <i name="ewald">-146823.83058530 </i>
    <i name="hartreedc"> -63570.95355518 </i>
    <i name="XCdc">   5605.13977515 </i>
    <i name="pawpsdc"> 170752.14344873 </i>
    <i name="pawaedc">-179778.69599310 </i>
    <i name="eentropy">     -0.05381530 </i>
    <i name="bandstr"> -19187.03353596 </i>
    <i name="atom"> 224013.29143063 </i>
    <i name="e_fr_energy">   -361.89002538 </i>
    <i name="e_wo_entrp">   -361.83621007 </i>
    <i name="e_0_energy">   -361.87208694 </i>
   </energy>
  </scstep>
  <structure>
   <crystal>
    <varray name="basis" >
     <v>       0.00000000       7.36725000       7.36725000 </v>
     <v>       7.36725000       0.00000000       7.36725000 </v>
     <v>       7.36725000       7.36725000       0.00000000 </v>
    </varray>
    <i name="volume">    799.73521152 </i>
    <varray name="rec_basis" >
     <v>      -0.06786793       0.06786793       0.06786793 </v>
     <v>       0.06786793      -0.06786793       0.06786793 </v>
     <v>       0.06786793       0.06786793      -0.06786793 </v>
    </varray>
   </crystal>
   <varray name="positions" >
    <v>      -0.00101802       0.00101802       0.00101802 </v>
    <v>       0.00000000       0.00000000       0.25000000 </v>
    <v>       0.00000000       0.00000000       0.50000000 </v>
    <v>       0.00000000       0.00000000       0.75000000 </v>
    <v>       0.00000000       0.25000000       0.00000000 </v>
    <v>       0.00000000       0.25000000       0.25000000 </v>
    <v>       0.00000000       0.25000000       0.50000000 </v>
    <v>       0.00000000       0.25000000       0.75000000 </v>
    <v>       0.00000000       0.50000000       0.00000000 </v>
    <v>       0.00000000       0.50000000       0.25000000 </v>
    <v>       0.00000000       0.50000000       0.50000000 </v>
    <v>       0.00000000       0.50000000       0.75000000 </v>
    <v>       0.00000000       0.75000000       0.00000000 </v>
    <v>       0.00000000       0.75000000       0.25000000 </v>
    <v>       0.00000000       0.75000000       0.50000000 </v>
    <v>       0.00000000       0.75000000       0.75000000 </v>
    <v>       0.25000000       0.00000000       0.00000000 </v>
    <v>       0.25000000       0.00000000       0.25000000 </v>
    <v>       0.25000000       0.00000000       0.50000000 </v>
    <v>       0.25000000       0.00000000       0.75000000 </v>
    <v>       0.25000000       0.25000000       0.00000000 </v>
    <v>       0.25000000       0.25000000       0.25000000 </v>
    <v>       0.25000000       0.25000000       0.50000000 </v>
    <v>       0.25000000       0.25000000       0.75000000 </v>
    <v>       0.25000000       0.50000000       0.00000000 </v>
    <v>       0.25000000       0.50000000       0.25000000 </v>
    <v>       0.25000000       0.50000000       0.50000000 </v>
    <v>       0.25000000       0.50000000       0.75000000 </v>
    <v>       0.25000000       0.75000000       0.00000000 </v>
    <v>       0.25000000       0.75000000       0.25000000 </v>
    <v>       0.25000000       0.75000000       0.50000000 </v>
    <v>       0.25000000       0.75000000       0.75000000 </v>
    <v>       0.50000000       0.00000000       0.00000000 </v>
    <v>       0.50000000       0.00000000       0.25000000 </v>
    <v>       0.50000000       0.00000000       0.50000000 </v>
    <v>       0.50000000       0.00000000       0.75000000 </v>
    <v>       0.50000000       0.25000000       0.00000000 </v>
    <v>       0.50000000       0.25000000       0.25000000 </v>
    <v>       0.50000000       0.25000000       0.50000000 </v>
    <v>       0.50000000       0.25000000       0.75000000 </v>
    <v>       0.50000000       0.50000000       0.00000000 </v>
    <v>       0.50000000       0.50000000       0.25000000 </v>
    <v>       0.50000000       0.50000000       0.50000000 </v>
    <v>       0.50000000       0.50000000       0.75000000 </v>
    <v>       0.50000000       0.75000000       0.00000000 </v>
    <v>       0.50000000       0.75000000       0.25000000 </v>
    <v>       0.50000000       0.75000000       0.50000000 </v>
    <v>       0.50000000       0.75000000       0.75000000 </v>
    <v>       0.75000000       0.00000000       0.00000000 </v>
    <v>       0.75000000       0.00000000       0.25000000 </v>
    <v>       0.75000000       0.00000000       0.50000000 </v>
    <v>       0.75000000       0.00000000       0.75000000 </v>
    <v>       0.75000000       0.25000000       0.00000000 </v>
    <v>       0.75000000       0.25000000       0.25000000 </v>
    <v>       0.75000000       0.25000000       0.50000000 </v>
    <v>       0.75000000       0.25000000       0.75000000 </v>
    <v>       0.75000000       0.50000000       0.00000000 </v>
    <v>       0.75000000       0.50000000       0.25000000 </v>
    <v>       0.75000000       0.50000000       0.50000000 </v>
    <v>       0.75000000       0.50000000       0.75000000 </v>
    <v>       0.75000000       0.75000000       0.00000000 </v>
    <v>       0.75000000       0.75000000       0.25000000 </v>
    <v>       0.75000000       0.75000000       0.50000000 </v>
    <v>       0.75000000       0.75000000       0.75000000 </v>
   </varray>
  </structure>
  <varray name="forces" >
   <v>      -0.07826824       0.00000000       0.00000000 </v>
   <v>       0.00808591       0.00851562       0.00000000 </v>
   <v>       0.00018159       0.00025179       0.00000000 </v>
   <v>       0.00760368       0.00791442       0.00000000 </v>
   <v>       0.00808591       0.00000000       0.00851562 </v>
   <v>       0.00095902       0.00065703       0.00065703 </v>
   <v>       0.00025465       0.00059998      -0.00028985 </v>
   <v>       0.00068878       0.00005129      -0.00005129 </v>
   <v>       0.00018159       0.00000000       0.00025179 </v>
   <v>       0.00025465      -0.00028985       0.00059998 </v>
   <v>       0.00007657       0.00000000       0.00000000 </v>
   <v>       0.00026326      -0.00031014       0.00067422 </v>
   <v>       0.00760368       0.00000000       0.00791442 </v>
   <v>       0.00068878      -0.00005129       0.00005129 </v>
   <v>       0.00026326       0.00067422      -0.00031014 </v>
   <v>       0.00087428       0.00061988       0.00061988 </v>
   <v>       0.00068878      -0.00005129      -0.00005129 </v>
   <v>       0.00026326       0.00067422       0.00031014 </v>
   <v>       0.00087428       0.00061988      -0.00061988 </v>
   <v>       0.00760368       0.00000000      -0.00791442 </v>
   <v>       0.00026326       0.00031014       0.00067422 </v>
   <v>       0.00012452       0.00000000       0.00000000 </v>
   <v>       0.00025465       0.00028985      -0.00059998 </v>
   <v>      -0.00055128       0.00000000       0.00005344 </v>
   <v>       0.00087428      -0.00061988       0.00061988 </v>
   <v>       0.00025465      -0.00059998       0.00028985 </v>
   <v>      -0.00014132      -0.00001570      -0.00001570 </v>
   <v>       0.00006007       0.00000000      -0.00009240 </v>
   <v>       0.00760368      -0.00791442       0.00000000 </v>
   <v>      -0.00055128       0.00005344       0.00000000 </v>
   <v>       0.00006007      -0.00009240       0.00000000 </v>
   <v>       0.00141271       0.00000000       0.00000000 </v>
   <v>       0.00007657       0.00000000       0.00000000 </v>
   <v>       0.00026326      -0.00031014      -0.00067422 </v>
   <v>       0.00018159       0.00000000      -0.00025179 </v>
   <v>       0.00025465      -0.00028985      -0.00059998 </v>
   <v>       0.00026326      -0.00067422      -0.00031014 </v>
   <v>       0.00095902      -0.00065703      -0.00065703 </v>
   <v>       0.00003720       0.00000000       0.00005444 </v>
   <v>      -0.00014132       0.00001570      -0.00001570 </v>
   <v>       0.00018159      -0.00025179       0.00000000 </v>
   <v>       0.00003720       0.00005444       0.00000000 </v>
   <v>      -0.00035834       0.00000000       0.00000000 </v>
   <v>       0.00006007       0.00009240       0.00000000 </v>
   <v>       0.00025465      -0.00059998      -0.00028985 </v>
   <v>      -0.00014132      -0.00001570       0.00001570 </v>
   <v>       0.00006007       0.00000000       0.00009240 </v>
   <v>       0.00087428      -0.00061988      -0.00061988 </v>
   <v>       0.00068878       0.00005129       0.00005129 </v>
   <v>       0.00808591       0.00000000      -0.00851562 </v>
   <v>       0.00095902       0.00065703      -0.00065703 </v>
   <v>       0.00025465       0.00059998       0.00028985 </v>
   <v>       0.00808591      -0.00851562       0.00000000 </v>
   <v>       0.00147667       0.00000000       0.00000000 </v>
   <v>       0.00003720      -0.00005444       0.00000000 </v>
   <v>      -0.00055128      -0.00005344       0.00000000 </v>
   <v>       0.00095902      -0.00065703       0.00065703 </v>
   <v>       0.00003720       0.00000000      -0.00005444 </v>
   <v>      -0.00014132       0.00001570       0.00001570 </v>
   <v>       0.00026326      -0.00067422       0.00031014 </v>
   <v>       0.00025465       0.00028985       0.00059998 </v>
   <v>      -0.00055128       0.00000000      -0.00005344 </v>
   <v>       0.00026326       0.00031014      -0.00067422 </v>
   <v>       0.00012452       0.00000000       0.00000000 </v>
  </varray>
  <varray name="stress" >
   <v>    -318.79926385       0.00000000      -0.00000000 </v>
   <v>       0.00000000    -318.79717472       0.00000000 </v>
   <v>       0.00000000       0.00000000    -318.79717472 </v>
  </varray>
  <energy>
   <i name="e_fr_energy">   -361.89002538 </i>
   <i name="e_wo_entrp">   -361.87208694 </i>
   <i name="e_0_energy">     -0.05381530 </i>
  </energy>
  <kpoints>
   <generation param="Gamma">
    <v type="int" name="divisions">       3        3        3 </v>
    <v name="usershift">      0.00000000       0.00000000       0.00000000 </v>
    <v name="genvec1">      0.33333333       0.00000000       0.00000000 </v>
    <v name="genvec2">      0.00000000       0.33333333       0.00000000 </v>
    <v name="genvec3">      0.00000000       0.00000000       0.33333333 </v>
    <v name="shift">      0.00000000       0.00000000       0.00000000 </v>
   </generation>
   <varray name="kpointlist" >
    <v>       0.00000000       0.00000000       0.00000000 </v>
    <v>       0.33333333       0.00000000       0.00000000 </v>
    <v>       0.33333333       0.33333333       0.00000000 </v>
    <v>      -0.33333333       0.33333333       0.00000000 </v>
    <v>       0.00000000       0.33333333       0.33333333 </v>
    <v>      -0.33333333       0.33333333       0.33333333 </v>
   </varray>
   <varray name="weights" >
    <v>       0.03703704 </v>
    <v>       0.29629630 </v>
    <v>       0.14814815 </v>
    <v>       0.29629630 </v>
    <v>       0.07407407 </v>
    <v>       0.14814815 </v>
   </varray>
  </kpoints>
  <time name="totalsc">13621.7713617.30</time>
 </calculation>
 <calculation>
  <scstep>
   <time name="dav">  992.52  991.70</time>
   <time name="total"> 1038.39 1037.54</time>
   <energy>
    <i name="alphaZ">   8628.10280496 </i>
    <i name="ewald">-146823.83058530 </i>
    <i name="hartreedc"> -63570.99046541 </i>
    <i name="XCdc">   5605.14184920 </i>
    <i name="pawpsdc"> 170752.12671949 </i>
    <i name="pawaedc">-179778.67848994 </i>
    <i name="eentropy">     -0.05372469 </i>
    <i name="bandstr"> -19186.70661393 </i>
    <i name="atom"> 224013.29143063 </i>
    <i name="e_fr_energy">   -361.59707499 </i>
    <i name="e_wo_entrp">   -361.54335030 </i>
    <i name="e_0_energy">   -361.57916676 </i>
   </energy>
  </scstep>
  <scstep>
   <time name="dav">  803.86  803.20</time>
   <time name="total">  850.93  850.23</time>
   <energy>
    <i name="e_fr_energy">   -361.90604934 </i>
    <i name="e_wo_entrp">   -361.85254146 </i>
    <i name="e_0_energy">   -361.88821338 </i>
   </energy>
  </scstep>
  <scstep>
   <time name="dav">  912.19  911.45</time>
   <time name="total">  958.67  957.89</time>
   <energy>
    <i name="e_fr_energy">   -361.89383605 </i>
    <i name="e_wo_entrp">   -361.83978414 </i>
    <i name="e_0_energy">   -361.87581875 </i>
   </energy>
  </scstep>
  <scstep>
   <time name="dav">  919.41  918.65</time>
   <time name="total">  965.70  964.91</time>
   <energy>
    <i name="e_fr_energy">   -361.90109757 </i>
    <i name="e_wo_entrp">   -361.84731508 </i>
    <i name="e_0_energy">   -361.88317007 </i>
   </energy>
  </scstep>
  <scstep>
   <time name="dav">  830.94  830.25</time>
   <time name="total">  877.68  876.96</time>
   <energy>
    <i name="e_fr_energy">   -361.89074399 </i>
    <i name="e_wo_entrp">   -361.83688695 </i>
    <i name="e_0_energy">   -361.87279164 </i>
   </energy>
  </scstep>
  <scstep>
   <time name="dav">  958.69  957.90</time>
   <time name="total"> 1005.83 1005.00</time>
   <energy>
    <i name="e_fr_energy">   -361.89054940 </i>
    <i name="e_wo_entrp">   -361.83670061 </i>
    <i name="e_0_energy">   -361.87259980 </i>
   </energy>
  </scstep>
  <scstep>
   <time name="dav">  853.72  853.02</time>
   <time name="total">  899.33  898.59</time>
   <energy>
    <i name="e_fr_energy">   -361.89045485 </i>
    <i name="e_wo_entrp">   -361.83660958 </i>
    <i name="e_0_energy">   -361.87250643 </i>
   </energy>
  </scstep>
  <scstep>
   <time name="dav">  838.83  838.14</time>
   <time name="total">  882.22  881.50</time>
   <energy>
    <i name="e_fr_energy">   -361.89031182 </i>
    <i name="e_wo_entrp">   -361.83647429 </i>
    <i name="e_0_energy">   -361.87236598 </i>
   </energy>
  </scstep>
  <scstep>
   <time name="dav">  849.71  849.01</time>
   <time name="total">  896.06  895.32</time>
   <energy>
    <i name="e_fr_energy">   -361.89044902 </i>
    <i name="e_wo_entrp">   -361.83661846 </i>
    <i name="e_0_energy">   -361.87250550 </i>
   </energy>
  </scstep>
  <scstep>
   <time name="dav">  957.66  956.87</time>
   <time name="total"> 1003.60 1002.77</time>
   <energy>
    <i name="e_fr_energy">   -361.89009372 </i>
    <i name="e_wo_entrp">   -361.83628451 </i>
    <i name="e_0_energy">   -361.87215732 </i>
   </energy>
  </scstep>
  <scstep>
   <time name="dav">  965.05  964.26</time>
   <time name="total"> 1009.82 1008.99</time>
   <energy>
    <i name="e_fr_energy">   -361.89002706 </i>
    <i name="e_wo_entrp">   -361.83621717 </i>
    <i name="e_0_energy">   -361.87209043 </i>
   </energy>
  </scstep>
  <scstep>
   <time name="dav">  976.41  975.61</time>
   <time name="total"> 1020.57 1019.74</time>
   <energy>
    <i name="e_fr_energy">   -361.89004604 </i>
    <i name="e_wo_entrp">   -361.83623222 </i>
    <i name="e_0_energy">   -361.87210810 </i>
   </energy>
  </scstep>
  <scstep>
   <time name="dav">  859.57  858.86</time>
   <time name="total">  909.46  908.72</time>
   <energy>
    <i name="e_fr_energy">   -361.89002514 </i>
    <i name="e_wo_entrp">   -361.83620885 </i>
    <i name="e_0_energy">   -361.87208637 </i>
   </energy>
  </scstep>
  <scstep>
   <time name="dav">  940.32  939.55</time>
   <time name="total">  990.11  989.30</time>
   <energy>
    <i name="e_fr_energy">   -361.89003003 </i>
    <i name="e_wo_entrp">   -361.83621431 </i>
    <i name="e_0_energy">   -361.87209146 </i>
   </energy>
  </scstep>
  <scstep>
   <time name="dav">  729.59  728.99</time>
   <time name="total">  778.89  778.25</time>
   <energy>
    <i name="e_fr_energy">   -361.89002511 </i>
    <i name="e_wo_entrp">   -361.83620793 </i>
    <i name="e_0_energy">   -361.87208605 </i>
   </energy>
  </scstep>
  <scstep>
   <time name="dav">  513.55  513.13</time>
   <time name="total">  517.13  516.71</time>
   <energy>
    <i name="alphaZ">   8628.10280496 </i>
    <i name="ewald">-146823.83058530 </i>
    <i name="hartreedc"> -63570.94791515 </i>
    <i name="XCdc">   5605.13955941 </i>
    <i name="pawpsdc"> 170752.13381072 </i>
    <i name="pawaedc">-179778.68615112 </i>
    <i name="eentropy">     -0.05381667 </i>
    <i name="bandstr"> -19187.03916261 </i>
    <i name="atom"> 224013.29143063 </i>
    <i name="e_fr_energy">   -361.89002514 </i>
    <i name="e_wo_entrp">   -361.83620847 </i>
    <i name="e_0_energy">   -361.87208625 </i>
   </energy>
  </scstep>
  <structure>
   <crystal>
    <varray name="basis" >
     <v>       0.00000000       7.36725000       7.36725000 </v>
     <v>       7.36725000       0.00000000       7.36725000 </v>
     <v>       7.36725000       7.36725000       0.00000000 </v>
    </varray>
    <i name="volume">    799.73521152 </i>
    <varray name="rec_basis" >
     <v>      -0.06786793       0.06786793       0.06786793 </v>
     <v>       0.06786793      -0.06786793       0.06786793 </v>
     <v>       0.06786793       0.06786793      -0.06786793 </v>
    </varray>
   </crystal>
   <varray name="positions" >
    <v>       0.00101802      -0.00101802      -0.00101802 </v>
    <v>       0.00000000       0.00000000       0.25000000 </v>
    <v>       0.00000000       0.00000000       0.50000000 </v>
    <v>       0.00000000       0.00000000       0.75000000 </v>
    <v>       0.00000000       0.25000000       0.00000000 </v>
    <v>       0.00000000       0.25000000       0.25000000 </v>
    <v>       0.00000000       0.25000000       0.50000000 </v>
    <v>       0.00000000       0.25000000       0.75000000 </v>
    <v>       0.00000000       0.50000000       0.00000000 </v>
    <v>       0.00000000       0.50000000       0.25000000 </v>
    <v>       0.00000000       0.50000000       0.50000000 </v>
    <v>       0.00000000       0.50000000       0.75000000 </v>
    <v>       0.00000000       0.75000000       0.00000000 </v>
    <v>       0.00000000       0.75000000       0.25000000 </v>
    <v>       0.00000000       0.75000000       0.50000000 </v>
    <v>       0.00000000       0.75000000       0.75000000 </v>
    <v>       0.25000000       0.00000000       0.00000000 </v>
    <v>       0.25000000       0.00000000       0.25000000 </v>
    <v>       0.25000000       0.00000000       0.50000000 </v>
    <v>       0.25000000       0.00000000       0.75000000 </v>
    <v>       0.25000000       0.25000000       0.00000000 </v>
    <v>       0.25000000       0.25000000       0.25000000 </v>
    <v>       0.25000000       0.25000000       0.50000000 </v>
    <v>       0.25000000       0.25000000       0.75000000 </v>
    <v>       0.25000000       0.50000000       0.00000000 </v>
    <v>       0.25000000       0.50000000       0.25000000 </v>
    <v>       0.25000000       0.50000000       0.50000000 </v>
    <v>       0.25000000       0.50000000       0.75000000 </v>
    <v>       0.25000000       0.75000000       0.00000000 </v>
    <v>       0.25000000       0.75000000       0.25000000 </v>
    <v>       0.25000000       0.75000000       0.50000000 </v>
    <v>       0.25000000       0.75000000       0.75000000 </v>
    <v>       0.50000000       0.00000000       0.00000000 </v>
    <v>       0.50000000       0.00000000       0.25000000 </v>
    <v>       0.50000000       0.00000000       0.50000000 </v>
    <v>       0.50000000       0.00000000       0.75000000 </v>
    <v>       0.50000000       0.25000000       0.00000000 </v>
    <v>       0.50000000       0.25000000       0.25000000 </v>
    <v>       0.50000000       0.25000000       0.50000000 </v>
    <v>       0.50000000       0.25000000       0.75000000 </v>
    <v>       0.50000000       0.50000000       0.00000000 </v>
    <v>       0.50000000       0.50000000       0.25000000 </v>
    <v>       0.50000000       0.50000000       0.50000000 </v>
    <v>       0.50000000       0.50000000       0.75000000 </v>
    <v>       0.50000000       0.75000000       0.00000000 </v>
    <v>       0.50000000       0.75000000       0.25000000 </v>
    <v>       0.50000000       0.75000000       0.50000000 </v>
    <v>       0.50000000       0.75000000       0.75000000 </v>
    <v>       0.75000000       0.00000000       0.00000000 </v>
    <v>       0.75000000       0.00000000       0.25000000 </v>
    <v>       0.75000000       0.00000000       0.50000000 </v>
    <v>       0.75000000       0.00000000       0.75000000 </v>
    <v>       0.75000000       0.25000000       0.00000000 </v>
    <v>       0.75000000       0.25000000       0.25000000 </v>
    <v>       0.75000000       0.25000000       0.50000000 </v>
    <v>       0.75000000       0.25000000       0.75000000 </v>
    <v>       0.75000000       0.50000000       0.00000000 </v>
    <v>       0.75000000       0.50000000       0.25000000 </v>
    <v>       0.75000000       0.50000000       0.50000000 </v>
    <v>       0.75000000       0.50000000       0.75000000 </v>
    <v>       0.75000000       0.75000000       0.00000000 </v>
    <v>       0.75000000       0.75000000       0.25000000 </v>
    <v>       0.75000000       0.75000000       0.50000000 </v>
    <v>       0.75000000       0.75000000       0.75000000 </v>
   </varray>
  </structure>
  <varray name="forces" >
[...]
       <r>    20.1527     0.0000   646.0000 </r>
       <r>    20.4320     0.0000   646.0000 </r>
       <r>    20.7113     0.0000   646.0000 </r>
       <r>    20.9906     0.0000   646.0000 </r>
       <r>    21.2699     0.0000   646.0000 </r>
       <r>    21.5492     0.0000   646.0000 </r>
       <r>    21.8285     0.0000   646.0000 </r>
       <r>    22.1078     0.0000   646.0000 </r>
       <r>    22.3871     0.0000   646.0000 </r>
      </set>
      <set comment="spin 2">
       <r>   -61.4060     0.0000     0.0000 </r>
       <r>   -61.1267     0.0000     0.0000 </r>
       <r>   -60.8474     0.0000     0.0000 </r>
       <r>   -60.5681     0.0000     0.0000 </r>
       <r>   -60.2888     0.0000     0.0000 </r>
       <r>   -60.0095     0.0000     0.0000 </r>
       <r>   -59.7302     0.0000     0.0000 </r>
       <r>   -59.4509     0.0000     0.0000 </r>
       <r>   -59.1716     0.0000     0.0000 </r>
       <r>   -58.8923     0.0000     0.0000 </r>
       <r>   -58.6129     0.0000     0.0000 </r>
       <r>   -58.3336    -0.0000    -0.0000 </r>
       <r>   -58.0543    -0.0000    -0.0000 </r>
       <r>   -57.7750    -0.0000    -0.0000 </r>
       <r>   -57.4957    -0.0000    -0.0000 </r>
       <r>   -57.2164    -0.0603    -0.0168 </r>
       <r>   -56.9371   -12.8744    -3.6128 </r>
       <r>   -56.6578   194.3721    50.6774 </r>
       <r>   -56.3785   522.2775   196.5550 </r>
       <r>   -56.0991   -15.2016   192.3091 </r>
       <r>   -55.8198    -1.1061   192.0001 </r>
       <r>   -55.5405    -0.0004   192.0000 </r>
       <r>   -55.2612    -0.0000   192.0000 </r>
       <r>   -54.9819     0.0000   192.0000 </r>
       <r>   -54.7026     0.0000   192.0000 </r>
       <r>   -54.4233     0.0000   192.0000 </r>
       <r>   -54.1440     0.0000   192.0000 </r>
       <r>   -53.8647     0.0000   192.0000 </r>
       <r>   -53.5853     0.0000   192.0000 </r>
       <r>   -53.3060     0.0000   192.0000 </r>
       <r>   -53.0267     0.0000   192.0000 </r>
       <r>   -52.7474     0.0000   192.0000 </r>
       <r>   -52.4681     0.0000   192.0000 </r>
       <r>   -52.1888     0.0000   192.0000 </r>
       <r>   -51.9095     0.0000   192.0000 </r>
       <r>   -51.6302     0.0000   192.0000 </r>
       <r>   -51.3509     0.0000   192.0000 </r>
       <r>   -51.0716     0.0000   192.0000 </r>
       <r>   -50.7922     0.0000   192.0000 </r>
       <r>   -50.5129     0.0000   192.0000 </r>
       <r>   -50.2336     0.0000   192.0000 </r>
       <r>   -49.9543     0.0000   192.0000 </r>
       <r>   -49.6750     0.0000   192.0000 </r>
       <r>   -49.3957     0.0000   192.0000 </r>
       <r>   -49.1164     0.0000   192.0000 </r>
       <r>   -48.8371     0.0000   192.0000 </r>
       <r>   -48.5578     0.0000   192.0000 </r>
       <r>   -48.2784     0.0000   192.0000 </r>
       <r>   -47.9991     0.0000   192.0000 </r>
       <r>   -47.7198     0.0000   192.0000 </r>
       <r>   -47.4405     0.0000   192.0000 </r>
       <r>   -47.1612     0.0000   192.0000 </r>
       <r>   -46.8819     0.0000   192.0000 </r>
       <r>   -46.6026     0.0000   192.0000 </r>
       <r>   -46.3233     0.0000   192.0000 </r>
       <r>   -46.0440     0.0000   192.0000 </r>
       <r>   -45.7647     0.0000   192.0000 </r>
       <r>   -45.4853     0.0000   192.0000 </r>
       <r>   -45.2060     0.0000   192.0000 </r>
       <r>   -44.9267     0.0000   192.0000 </r>
       <r>   -44.6474     0.0000   192.0000 </r>
       <r>   -44.3681     0.0000   192.0000 </r>
       <r>   -44.0888     0.0000   192.0000 </r>
       <r>   -43.8095     0.0000   192.0000 </r>
       <r>   -43.5302     0.0000   192.0000 </r>
       <r>   -43.2509     0.0000   192.0000 </r>
       <r>   -42.9715     0.0000   192.0000 </r>
       <r>   -42.6922     0.0000   192.0000 </r>
       <r>   -42.4129     0.0000   192.0000 </r>
       <r>   -42.1336     0.0000   192.0000 </r>
       <r>   -41.8543     0.0000   192.0000 </r>
       <r>   -41.5750     0.0000   192.0000 </r>
       <r>   -41.2957     0.0000   192.0000 </r>
       <r>   -41.0164     0.0000   192.0000 </r>
       <r>   -40.7371     0.0000   192.0000 </r>
       <r>   -40.4578     0.0000   192.0000 </r>
       <r>   -40.1784     0.0000   192.0000 </r>
       <r>   -39.8991     0.0000   192.0000 </r>
       <r>   -39.6198     0.0000   192.0000 </r>
       <r>   -39.3405     0.0000   192.0000 </r>
       <r>   -39.0612     0.0000   192.0000 </r>
       <r>   -38.7819     0.0000   192.0000 </r>
       <r>   -38.5026     0.0000   192.0000 </r>
       <r>   -38.2233     0.0000   192.0000 </r>
       <r>   -37.9440     0.0000   192.0000 </r>
       <r>   -37.6646     0.0000   192.0000 </r>
       <r>   -37.3853     0.0000   192.0000 </r>
       <r>   -37.1060     0.0000   192.0000 </r>
       <r>   -36.8267     0.0000   192.0000 </r>
       <r>   -36.5474     0.0000   192.0000 </r>
       <r>   -36.2681     0.0000   192.0000 </r>
       <r>   -35.9888     0.0000   192.0000 </r>
       <r>   -35.7095     0.0000   192.0000 </r>
       <r>   -35.4302     0.0000   192.0000 </r>
       <r>   -35.1508     0.0000   192.0000 </r>
       <r>   -34.8715     0.0000   192.0000 </r>
       <r>   -34.5922     0.0000   192.0000 </r>
       <r>   -34.3129     0.0000   192.0000 </r>
       <r>   -34.0336     0.0000   192.0000 </r>
       <r>   -33.7543     0.0000   192.0000 </r>
       <r>   -33.4750     0.0000   192.0000 </r>
       <r>   -33.1957     0.0000   192.0000 </r>
       <r>   -32.9164     0.0000   192.0000 </r>
       <r>   -32.6371     0.0000   192.0000 </r>
       <r>   -32.3577     0.0000   192.0000 </r>
       <r>   -32.0784     0.0000   192.0000 </r>
       <r>   -31.7991     0.0000   192.0000 </r>
       <r>   -31.5198     0.0000   192.0000 </r>
       <r>   -31.2405     0.0000   192.0000 </r>
       <r>   -30.9612     0.0000   192.0000 </r>
       <r>   -30.6819     0.0000   192.0000 </r>
       <r>   -30.4026     0.0000   192.0000 </r>
       <r>   -30.1233     0.0000   192.0000 </r>
       <r>   -29.8439     0.0000   192.0000 </r>
       <r>   -29.5646     0.0000   192.0000 </r>
       <r>   -29.2853     0.0000   192.0000 </r>
       <r>   -29.0060     0.0000   192.0000 </r>
       <r>   -28.7267     0.0000   192.0000 </r>
       <r>   -28.4474     0.0000   192.0000 </r>
       <r>   -28.1681     0.0000   192.0000 </r>
       <r>   -27.8888     0.0000   192.0000 </r>
       <r>   -27.6095     0.0000   192.0000 </r>
       <r>   -27.3302     0.0000   192.0000 </r>
       <r>   -27.0508     0.0000   192.0000 </r>
       <r>   -26.7715     0.0000   192.0000 </r>
       <r>   -26.4922     0.0000   192.0000 </r>
       <r>   -26.2129     0.0000   192.0000 </r>
       <r>   -25.9336     0.0000   192.0000 </r>
       <r>   -25.6543     0.0000   192.0000 </r>
       <r>   -25.3750     0.0000   192.0000 </r>
       <r>   -25.0957     0.0000   192.0000 </r>
       <r>   -24.8164     0.0000   192.0000 </r>
       <r>   -24.5370     0.0000   192.0000 </r>
       <r>   -24.2577     0.0000   192.0000 </r>
       <r>   -23.9784     0.0000   192.0000 </r>
       <r>   -23.6991     0.0000   192.0000 </r>
       <r>   -23.4198     0.0000   192.0000 </r>
       <r>   -23.1405     0.0000   192.0000 </r>
       <r>   -22.8612     0.0000   192.0000 </r>
       <r>   -22.5819     0.0000   192.0000 </r>
       <r>   -22.3026     0.0000   192.0000 </r>
       <r>   -22.0233     0.0000   192.0000 </r>
       <r>   -21.7439     0.0000   192.0000 </r>
       <r>   -21.4646     0.0000   192.0000 </r>
       <r>   -21.1853     0.0000   192.0000 </r>
       <r>   -20.9060     0.0000   192.0000 </r>
       <r>   -20.6267     0.0000   192.0000 </r>
       <r>   -20.3474     0.0000   192.0000 </r>
       <r>   -20.0681     0.0000   192.0000 </r>
       <r>   -19.7888     0.0000   192.0000 </r>
       <r>   -19.5095     0.0000   192.0000 </r>
       <r>   -19.2301     0.0000   192.0000 </r>
       <r>   -18.9508     0.0000   192.0000 </r>
       <r>   -18.6715     0.0000   192.0000 </r>
       <r>   -18.3922     0.0000   192.0000 </r>
       <r>   -18.1129     0.0000   192.0000 </r>
       <r>   -17.8336     0.0000   192.0000 </r>
       <r>   -17.5543     0.0000   192.0000 </r>
       <r>   -17.2750     0.0000   192.0000 </r>
       <r>   -16.9957     0.0000   192.0000 </r>
       <r>   -16.7163     0.0000   192.0000 </r>
       <r>   -16.4370     0.0000   192.0000 </r>
       <r>   -16.1577     0.0000   192.0000 </r>
       <r>   -15.8784     0.0000   192.0000 </r>
       <r>   -15.5991     0.0000   192.0000 </r>
       <r>   -15.3198     0.0000   192.0000 </r>
       <r>   -15.0405     0.0000   192.0000 </r>
       <r>   -14.7612     0.0000   192.0000 </r>
       <r>   -14.4819     0.0000   192.0000 </r>
       <r>   -14.2026     0.0000   192.0000 </r>
       <r>   -13.9232     0.0000   192.0000 </r>
       <r>   -13.6439     0.0000   192.0000 </r>
       <r>   -13.3646     0.0000   192.0000 </r>
       <r>   -13.0853     0.0000   192.0000 </r>
       <r>   -12.8060     0.0000   192.0000 </r>
       <r>   -12.5267     0.0000   192.0000 </r>
       <r>   -12.2474     0.0000   192.0000 </r>
       <r>   -11.9681     0.0000   192.0000 </r>
       <r>   -11.6888     0.0000   192.0000 </r>
       <r>   -11.4094     0.0000   192.0000 </r>
       <r>   -11.1301     0.0000   192.0000 </r>
       <r>   -10.8508     0.0000   192.0000 </r>
       <r>   -10.5715     0.0000   192.0000 </r>
       <r>   -10.2922     0.0000   192.0000 </r>
       <r>   -10.0129     0.0000   192.0000 </r>
       <r>    -9.7336     0.0000   192.0000 </r>
       <r>    -9.4543     0.0000   192.0000 </r>
       <r>    -9.1750     0.0000   192.0000 </r>
       <r>    -8.8957     0.0000   192.0000 </r>
       <r>    -8.6163     0.0000   192.0000 </r>
       <r>    -8.3370     0.0000   192.0000 </r>
       <r>    -8.0577     0.0000   192.0000 </r>
       <r>    -7.7784     0.0000   192.0000 </r>
       <r>    -7.4991     0.0000   192.0000 </r>
       <r>    -7.2198     0.0000   192.0000 </r>
       <r>    -6.9405     0.0000   192.0000 </r>
       <r>    -6.6612     0.0000   192.0000 </r>
       <r>    -6.3819     0.0000   192.0000 </r>
       <r>    -6.1025     0.0000   192.0000 </r>
       <r>    -5.8232     0.0000   192.0000 </r>
       <r>    -5.5439     0.0000   192.0000 </r>
       <r>    -5.2646     0.0000   192.0000 </r>
       <r>    -4.9853     0.0000   192.0000 </r>
       <r>    -4.7060     0.0000   192.0000 </r>
       <r>    -4.4267     0.0000   192.0000 </r>
       <r>    -4.1474     0.0000   192.0000 </r>
       <r>    -3.8681     0.0000   192.0000 </r>
       <r>    -3.5888    -0.0000   192.0000 </r>
       <r>    -3.3094    -0.0000   192.0000 </r>
       <r>    -3.0301    -0.0000   192.0000 </r>
       <r>    -2.7508    -0.0000   192.0000 </r>
       <r>    -2.4715    -0.0001   192.0000 </r>
       <r>    -2.1922    -0.0056   191.9984 </r>
       <r>    -1.9129     0.0239   192.0051 </r>
       <r>    -1.6336     1.1292   192.3205 </r>
       <r>    -1.3543     1.1375   192.6382 </r>
       <r>    -1.0750     2.6261   193.3717 </r>
       <r>    -0.7956     3.0076   194.2118 </r>
       <r>    -0.5163     1.2239   194.5536 </r>
       <r>    -0.2370     5.5713   196.1098 </r>
       <r>     0.0423     3.5501   197.1013 </r>
       <r>     0.3216     4.0641   198.2365 </r>
       <r>     0.6009     2.1385   198.8338 </r>
       <r>     0.8802     9.5546   201.5025 </r>
       <r>     1.1595     4.9606   202.8881 </r>
       <r>     1.4388     5.4176   204.4013 </r>
       <r>     1.7182     5.5610   205.9545 </r>
       <r>     1.9975    12.9493   209.5714 </r>
       <r>     2.2768    11.6349   212.8211 </r>
       <r>     2.5561    11.4548   216.0206 </r>
       <r>     2.8354    29.3375   224.2148 </r>
       <r>     3.1147    37.4073   234.6631 </r>
       <r>     3.3940    33.7939   244.1021 </r>
       <r>     3.6733    60.0486   260.8743 </r>
       <r>     3.9526    64.1182   278.7832 </r>
       <r>     4.2319    61.6784   296.0106 </r>
       <r>     4.5113    78.7691   318.0117 </r>
       <r>     4.7906    98.3437   345.4801 </r>
       <r>     5.0699   112.0966   376.7899 </r>
       <r>     5.3492    90.0019   401.9284 </r>
       <r>     5.6285    90.7279   427.2696 </r>
       <r>     5.9078    93.1156   453.2778 </r>
       <r>     6.1871    96.3401   480.1866 </r>
       <r>     6.4664   123.5742   514.7022 </r>
       <r>     6.7457    59.9659   531.4513 </r>
       <r>     7.0251    18.0012   536.4792 </r>
       <r>     7.3044     7.2020   538.4908 </r>
       <r>     7.5837    13.1517   542.1642 </r>
       <r>     7.8630    13.7979   546.0181 </r>
       <r>     8.1423    11.7156   549.2904 </r>
       <r>     8.4216     6.0079   550.9685 </r>
       <r>     8.7009     9.9414   553.7452 </r>
       <r>     8.9802    12.8261   557.3277 </r>
       <r>     9.2595     7.6501   559.4644 </r>
       <r>     9.5388    10.1372   562.2959 </r>
       <r>     9.8182     4.1375   563.4515 </r>
       <r>    10.0975    12.2029   566.8599 </r>
       <r>    10.3768     3.3537   567.7966 </r>
       <r>    10.6561     1.0041   568.0771 </r>
       <r>    10.9354    11.0384   571.1602 </r>
       <r>    11.2147     4.8520   572.5154 </r>
       <r>    11.4940     3.5947   573.5195 </r>
       <r>    11.7733    13.1970   577.2055 </r>
       <r>    12.0526    10.6608   580.1832 </r>
       <r>    12.3320    10.2630   583.0498 </r>
       <r>    12.6113     5.5047   584.5873 </r>
       <r>    12.8906     9.4678   587.2318 </r>
       <r>    13.1699     9.9564   590.0127 </r>
       <r>    13.4492     7.6727   592.1558 </r>
       <r>    13.7285    11.3711   595.3318 </r>
       <r>    14.0078    12.5038   598.8243 </r>
       <r>    14.2871     3.7480   599.8711 </r>
       <r>    14.5664     8.4534   602.2323 </r>
       <r>    14.8457    10.2895   605.1062 </r>
       <r>    15.1251     7.3305   607.1537 </r>
       <r>    15.4044    10.6133   610.1181 </r>
       <r>    15.6837     8.1038   612.3816 </r>
       <r>    15.9630    17.8264   617.3607 </r>
       <r>    16.2423    16.9654   622.0993 </r>
       <r>    16.5216     8.1030   624.3625 </r>
       <r>    16.8009    16.0278   628.8393 </r>
       <r>    17.0802    10.6898   631.8251 </r>
       <r>    17.3595    10.4028   634.7307 </r>
       <r>    17.6389    12.9353   638.3436 </r>
       <r>    17.9182     7.4394   640.4215 </r>
       <r>    18.1975    12.5510   643.9272 </r>
       <r>    18.4768     5.6366   645.5015 </r>
       <r>    18.7561     1.8132   646.0080 </r>
       <r>    19.0354    -0.0217   646.0019 </r>
       <r>    19.3147    -0.0068   646.0000 </r>
       <r>    19.5940    -0.0000   646.0000 </r>
       <r>    19.8733    -0.0000   646.0000 </r>
       <r>    20.1527     0.0000   646.0000 </r>
       <r>    20.4320     0.0000   646.0000 </r>
       <r>    20.7113     0.0000   646.0000 </r>
       <r>    20.9906     0.0000   646.0000 </r>
       <r>    21.2699     0.0000   646.0000 </r>
       <r>    21.5492     0.0000   646.0000 </r>
       <r>    21.8285     0.0000   646.0000 </r>
       <r>    22.1078     0.0000   646.0000 </r>
       <r>    22.3871     0.0000   646.0000 </r>
      </set>
     </set>
    </array>
   </total>
  </dos>
 </calculation>
 <structure name="finalpos" >
  <crystal>
   <varray name="basis" >
    <v>       0.00000000       7.36725000       7.36725000 </v>
    <v>       7.36725000       0.00000000       7.36725000 </v>
    <v>       7.36725000       7.36725000       0.00000000 </v>
   </varray>
   <i name="volume">    799.73521152 </i>
   <varray name="rec_basis" >
    <v>      -0.06786793       0.06786793       0.06786793 </v>
    <v>       0.06786793      -0.06786793       0.06786793 </v>
    <v>       0.06786793       0.06786793      -0.06786793 </v>
   </varray>
  </crystal>
  <varray name="positions" >
   <v>       0.00203604      -0.00203604      -0.00203604 </v>
   <v>       0.00000000       0.00000000       0.25000000 </v>
   <v>       0.00000000       0.00000000       0.50000000 </v>
   <v>       0.00000000       0.00000000       0.75000000 </v>
   <v>       0.00000000       0.25000000       0.00000000 </v>
   <v>       0.00000000       0.25000000       0.25000000 </v>
   <v>       0.00000000       0.25000000       0.50000000 </v>
   <v>       0.00000000       0.25000000       0.75000000 </v>
   <v>       0.00000000       0.50000000       0.00000000 </v>
   <v>       0.00000000       0.50000000       0.25000000 </v>
   <v>       0.00000000       0.50000000       0.50000000 </v>
   <v>       0.00000000       0.50000000       0.75000000 </v>
   <v>       0.00000000       0.75000000       0.00000000 </v>
   <v>       0.00000000       0.75000000       0.25000000 </v>
   <v>       0.00000000       0.75000000       0.50000000 </v>
   <v>       0.00000000       0.75000000       0.75000000 </v>
   <v>       0.25000000       0.00000000       0.00000000 </v>
   <v>       0.25000000       0.00000000       0.25000000 </v>
   <v>       0.25000000       0.00000000       0.50000000 </v>
   <v>       0.25000000       0.00000000       0.75000000 </v>
   <v>       0.25000000       0.25000000       0.00000000 </v>
   <v>       0.25000000       0.25000000       0.25000000 </v>
   <v>       0.25000000       0.25000000       0.50000000 </v>
   <v>       0.25000000       0.25000000       0.75000000 </v>
   <v>       0.25000000       0.50000000       0.00000000 </v>
   <v>       0.25000000       0.50000000       0.25000000 </v>
   <v>       0.25000000       0.50000000       0.50000000 </v>
   <v>       0.25000000       0.50000000       0.75000000 </v>
   <v>       0.25000000       0.75000000       0.00000000 </v>
   <v>       0.25000000       0.75000000       0.25000000 </v>
   <v>       0.25000000       0.75000000       0.50000000 </v>
   <v>       0.25000000       0.75000000       0.75000000 </v>
   <v>       0.50000000       0.00000000       0.00000000 </v>
   <v>       0.50000000       0.00000000       0.25000000 </v>
   <v>       0.50000000       0.00000000       0.50000000 </v>
   <v>       0.50000000       0.00000000       0.75000000 </v>
   <v>       0.50000000       0.25000000       0.00000000 </v>
   <v>       0.50000000       0.25000000       0.25000000 </v>
   <v>       0.50000000       0.25000000       0.50000000 </v>
   <v>       0.50000000       0.25000000       0.75000000 </v>
   <v>       0.50000000       0.50000000       0.00000000 </v>
   <v>       0.50000000       0.50000000       0.25000000 </v>
   <v>       0.50000000       0.50000000       0.50000000 </v>
   <v>       0.50000000       0.50000000       0.75000000 </v>
   <v>       0.50000000       0.75000000       0.00000000 </v>
   <v>       0.50000000       0.75000000       0.25000000 </v>
   <v>       0.50000000       0.75000000       0.50000000 </v>
   <v>       0.50000000       0.75000000       0.75000000 </v>
   <v>       0.75000000       0.00000000       0.00000000 </v>
   <v>       0.75000000       0.00000000       0.25000000 </v>
   <v>       0.75000000       0.00000000       0.50000000 </v>
   <v>       0.75000000       0.00000000       0.75000000 </v>
   <v>       0.75000000       0.25000000       0.00000000 </v>
   <v>       0.75000000       0.25000000       0.25000000 </v>
   <v>       0.75000000       0.25000000       0.50000000 </v>
   <v>       0.75000000       0.25000000       0.75000000 </v>
   <v>       0.75000000       0.50000000       0.00000000 </v>
   <v>       0.75000000       0.50000000       0.25000000 </v>
   <v>       0.75000000       0.50000000       0.50000000 </v>
   <v>       0.75000000       0.50000000       0.75000000 </v>
   <v>       0.75000000       0.75000000       0.00000000 </v>
   <v>       0.75000000       0.75000000       0.25000000 </v>
   <v>       0.75000000       0.75000000       0.50000000 </v>
   <v>       0.75000000       0.75000000       0.75000000 </v>
  </varray>
 </structure>
</modeling>
