       N       E                     dE             d eps       ncg     rms          rms(c)
DAV:   1     0.139203931515E+05    0.13920E+05   -0.54140E+05 30176   0.191E+03
DAV:   2     0.816618161750E+03   -0.13104E+05   -0.12683E+05 25920   0.641E+02
DAV:   3    -0.370179985869E+03   -0.11868E+04   -0.98162E+03 26680   0.201E+02
DAV:   4    -0.430542886153E+03   -0.60363E+02   -0.58972E+02 27800   0.460E+01
DAV:   5    -0.431423722190E+03   -0.88084E+00   -0.88028E+00 27480   0.516E+00    0.680E+01
DAV:   6    -0.395979023227E+03    0.35445E+02   -0.59353E+02 27304   0.698E+01    0.491E+01
DAV:   7    -0.368345715061E+03    0.27633E+02   -0.11154E+02 27184   0.305E+01    0.588E+00
DAV:   8    -0.368371606482E+03   -0.25891E-01   -0.94143E-01 27192   0.201E+00    0.268E+00
DAV:   9    -0.368328443762E+03    0.43163E-01   -0.18879E-01 27944   0.783E-01    0.102E+00
DAV:  10    -0.368330212061E+03   -0.17683E-02   -0.10552E-02 29128   0.172E-01    0.299E-01
DAV:  11    -0.368333285939E+03   -0.30739E-02   -0.43193E-03 26984   0.136E-01    0.107E-01
DAV:  12    -0.368333406936E+03   -0.12100E-03   -0.48305E-04 27944   0.435E-02    0.249E-02
DAV:  13    -0.368333424631E+03   -0.17695E-04   -0.27569E-05 23800   0.968E-03    0.157E-02
DAV:  14    -0.368333402136E+03    0.22494E-04   -0.56295E-06 21360   0.578E-03    0.580E-03
DAV:  15    -0.368333393957E+03    0.81793E-05   -0.51389E-07 13760   0.163E-03    0.881E-04
DAV:  16    -0.368333394279E+03   -0.32151E-06   -0.11933E-07 13600   0.100E-03
   1 F= -.36833339E+03 E0= -.36829676E+03  d E =-.109899E+00  mag=    40.5696
 Found     1 degrees of freedom:
       N       E                     dE             d eps       ncg     rms          rms(c)
DAV:   1    -0.368260228480E+03    0.73165E-01   -0.24660E+00 62112   0.150E+01    0.438E-01
DAV:   2    -0.368333099101E+03   -0.72871E-01   -0.71391E-01 48264   0.155E+00    0.979E-01
DAV:   3    -0.368334117631E+03   -0.10185E-02   -0.24365E-02 56256   0.814E-01    0.832E-01
DAV:   4    -0.368333634097E+03    0.48353E-03   -0.37769E-03 57264   0.463E-01    0.659E-01
DAV:   5    -0.368332526145E+03    0.11080E-02   -0.10010E-03 50760   0.295E-01    0.152E-01
DAV:   6    -0.368332513477E+03    0.12669E-04   -0.19771E-04 59736   0.713E-02    0.133E-01
DAV:   7    -0.368332466233E+03    0.47244E-04   -0.51505E-05 51488   0.532E-02    0.114E-01
DAV:   8    -0.368332452059E+03    0.14174E-04   -0.63475E-05 52192   0.688E-02    0.126E-01
DAV:   9    -0.368332447994E+03    0.40653E-05   -0.12332E-04 54920   0.102E-01    0.157E-01
DAV:  10    -0.368332366283E+03    0.81711E-04   -0.10119E-04 58504   0.850E-02    0.225E-02
DAV:  11    -0.368332373419E+03   -0.71362E-05   -0.25683E-05 61920   0.276E-02    0.514E-02
DAV:  12    -0.368332368384E+03    0.50354E-05   -0.89802E-06 50008   0.228E-02    0.149E-02
DAV:  13    -0.368332368177E+03    0.20684E-06   -0.15934E-06 25168   0.942E-03
   2 F= -.36833237E+03 E0= -.36829574E+03  d E =-.109883E+00  mag=    40.5696
       N       E                     dE             d eps       ncg     rms          rms(c)
DAV:   1    -0.368070617785E+03    0.26175E+00   -0.79197E+00 62328   0.261E+01    0.859E-01
DAV:   2    -0.368344108836E+03   -0.27349E+00   -0.25798E+00 48680   0.280E+00    0.270E+00
DAV:   3    -0.368335311970E+03    0.87969E-02   -0.11452E-01 55616   0.152E+00    0.111E+00
DAV:   4    -0.368339779872E+03   -0.44679E-02   -0.16103E-02 58568   0.968E-01    0.164E+00
DAV:   5    -0.368333019255E+03    0.67606E-02   -0.61507E-03 50408   0.717E-01    0.362E-01
DAV:   6    -0.368332867937E+03    0.15132E-03   -0.96163E-04 58072   0.173E-01    0.242E-01
DAV:   7    -0.368332754096E+03    0.11384E-03   -0.26696E-04 51704   0.115E-01    0.238E-01
DAV:   8    -0.368332611512E+03    0.14258E-03   -0.24002E-04 52336   0.130E-01    0.209E-01
DAV:   9    -0.368332709223E+03   -0.97711E-04   -0.40669E-04 52512   0.185E-01    0.320E-01
DAV:  10    -0.368332451953E+03    0.25727E-03   -0.41277E-04 58912   0.181E-01    0.198E-01
DAV:  11    -0.368332364433E+03    0.87520E-04   -0.15750E-04 59344   0.895E-02    0.293E-02
DAV:  12    -0.368332374185E+03   -0.97514E-05   -0.38243E-05 64864   0.314E-02    0.508E-02
DAV:  13    -0.368332368623E+03    0.55614E-05   -0.12869E-05 50248   0.280E-02    0.179E-02
DAV:  14    -0.368332369907E+03   -0.12833E-05   -0.30644E-06 33440   0.153E-02    0.269E-02
DAV:  15    -0.368332368188E+03    0.17186E-05   -0.18616E-06 28024   0.129E-02    0.535E-03
DAV:  16    -0.368332368611E+03   -0.42247E-06   -0.83260E-07 24144   0.673E-03
   3 F= -.36833237E+03 E0= -.36829574E+03  d E =-.109884E+00  mag=    40.5696
