 vasp.5.4.1 05Feb16 (build Oct 12 2016 17:31:35) complex                        
  
 executed on           IFC91_ompi date 2020.09.07  22:41:47
 running on    4 total cores
 distrk:  each k-point on    4 cores,    1 groups
 distr:  one band on NCORES_PER_BAND=   1 cores,    4 groups


--------------------------------------------------------------------------------------------------------


 INCAR:
 POTCAR:   PAW_PBE Ni_pv 06Sep2000                
 POTCAR:   PAW_PBE Ni_pv 06Sep2000                
  local pseudopotential read in
  partial core-charges read in
  atomic valenz-charges read in
  non local Contribution for L=           1  read in
    real space projection operators read in
  non local Contribution for L=           1  read in
    real space projection operators read in
  non local Contribution for L=           2  read in
    real space projection operators read in
  non local Contribution for L=           2  read in
    real space projection operators read in
  non local Contribution for L=           0  read in
    real space projection operators read in
  non local Contribution for L=           0  read in
    real space projection operators read in
    PAW grid and wavefunctions read in
 
   number of l-projection  operators is LMAX  =           6
   number of lm-projection operators is LMMAX =          18
 
 Optimization of the real space projectors (new method)

 maximal supplied QI-value         = 18.90
 optimisation between [QCUT,QGAM] = [  9.83, 19.65] = [ 27.04,108.16] Ry 
 Optimized for a Real-space Cutoff    1.44 Angstroem

   l    n(q)    QCUT    max X(q) W(low)/X(q) W(high)/X(q)  e(spline) 
   1      8     9.827     3.231    0.38E-04    0.39E-04    0.57E-07
   1      8     9.827     4.241    0.57E-04    0.19E-03    0.30E-06
   2      7     9.827     3.566    0.29E-04    0.66E-04    0.48E-07
   2      7     9.827    20.429    0.17E-03    0.37E-03    0.30E-06
   0      8     9.827    19.799    0.18E-04    0.76E-05    0.78E-08
   0      8     9.827    52.283    0.39E-04    0.68E-04    0.44E-07
 PAW_PBE Ni_pv 06Sep2000                :
 energy of atom  1       EATOM=-3500.3496
 kinetic energy error for atom=    0.1419 (will be added to EATOM!!)
 
 
 POSCAR: Supercell by Yi Wang                    
  positions in direct lattice
  No initial velocities read in
 exchange correlation table for  LEXCH =        8
   RHO(1)=    0.500       N(1)  =     2000
   RHO(2)=  100.500       N(2)  =     4000
 


--------------------------------------------------------------------------------------------------------


 ion  position               nearest neighbor table
   1  0.000  0.000  0.000-   2 2.49   4 2.49   5 2.49   8 2.49  13 2.49  14 2.49  17 2.49  20 2.49
                            29 2.49  49 2.49  50 2.49  53 2.49
   2  0.000  0.000  0.250-   1 2.49   3 2.49   5 2.49   6 2.49  14 2.49  15 2.49  17 2.49  18 2.49
                            30 2.49  50 2.49  51 2.49  54 2.49
   3  0.000  0.000  0.500-   2 2.49   4 2.49   6 2.49   7 2.49  15 2.49  16 2.49  18 2.49  19 2.49
                            31 2.49  51 2.49  52 2.49  55 2.49
   4  0.000  0.000  0.750-   1 2.49   3 2.49   7 2.49   8 2.49  13 2.49  16 2.49  19 2.49  20 2.49
                            32 2.49  49 2.49  52 2.49  56 2.49
   5  0.000  0.250  0.000-   1 2.49   2 2.49   6 2.49   8 2.49   9 2.49  12 2.49  17 2.49  21 2.49
                            24 2.49  53 2.49  54 2.49  57 2.49
   6  0.000  0.250  0.250-   2 2.49   3 2.49   5 2.49   7 2.49   9 2.49  10 2.49  18 2.49  21 2.49
                            22 2.49  54 2.49  55 2.49  58 2.49
   7  0.000  0.250  0.500-   3 2.49   4 2.49   6 2.49   8 2.49  10 2.49  11 2.49  19 2.49  22 2.49
                            23 2.49  55 2.49  56 2.49  59 2.49
   8  0.000  0.250  0.750-   1 2.49   4 2.49   5 2.49   7 2.49  11 2.49  12 2.49  20 2.49  23 2.49
                            24 2.49  53 2.49  56 2.49  60 2.49
   9  0.000  0.500  0.000-   5 2.49   6 2.49  10 2.49  12 2.49  13 2.49  16 2.49  21 2.49  25 2.49
                            28 2.49  57 2.49  58 2.49  61 2.49
  10  0.000  0.500  0.250-   6 2.49   7 2.49   9 2.49  11 2.49  13 2.49  14 2.49  22 2.49  25 2.49
                            26 2.49  58 2.49  59 2.49  62 2.49
  11  0.000  0.500  0.500-   7 2.49   8 2.49  10 2.49  12 2.49  14 2.49  15 2.49  23 2.49  26 2.49
                            27 2.49  59 2.49  60 2.49  63 2.49
  12  0.000  0.500  0.750-   5 2.49   8 2.49   9 2.49  11 2.49  15 2.49  16 2.49  24 2.49  27 2.49
                            28 2.49  57 2.49  60 2.49  64 2.49
  13  0.000  0.750  0.000-   1 2.49   4 2.49   9 2.49  10 2.49  14 2.49  16 2.49  25 2.49  29 2.49
                            32 2.49  49 2.49  61 2.49  62 2.49
  14  0.000  0.750  0.250-   1 2.49   2 2.49  10 2.49  11 2.49  13 2.49  15 2.49  26 2.49  29 2.49
                            30 2.49  50 2.49  62 2.49  63 2.49
  15  0.000  0.750  0.500-   2 2.49   3 2.49  11 2.49  12 2.49  14 2.49  16 2.49  27 2.49  30 2.49
                            31 2.49  51 2.49  63 2.49  64 2.49
  16  0.000  0.750  0.750-   3 2.49   4 2.49   9 2.49  12 2.49  13 2.49  15 2.49  28 2.49  31 2.49
                            32 2.49  52 2.49  61 2.49  64 2.49
  17  0.250  0.000  0.000-   1 2.49   2 2.49   5 2.49  18 2.49  20 2.49  21 2.49  24 2.49  29 2.49
                            30 2.49  33 2.49  36 2.49  45 2.49
  18  0.250  0.000  0.250-   2 2.49   3 2.49   6 2.49  17 2.49  19 2.49  21 2.49  22 2.49  30 2.49
                            31 2.49  33 2.49  34 2.49  46 2.49
  19  0.250  0.000  0.500-   3 2.49   4 2.49   7 2.49  18 2.49  20 2.49  22 2.49  23 2.49  31 2.49
                            32 2.49  34 2.49  35 2.49  47 2.49
  20  0.250  0.000  0.750-   1 2.49   4 2.49   8 2.49  17 2.49  19 2.49  23 2.49  24 2.49  29 2.49
                            32 2.49  35 2.49  36 2.49  48 2.49
  21  0.250  0.250  0.000-   5 2.49   6 2.49   9 2.49  17 2.49  18 2.49  22 2.49  24 2.49  25 2.49
                            28 2.49  33 2.49  37 2.49  40 2.49
  22  0.250  0.250  0.250-   6 2.49   7 2.49  10 2.49  18 2.49  19 2.49  21 2.49  23 2.49  25 2.49
                            26 2.49  34 2.49  37 2.49  38 2.49
  23  0.250  0.250  0.500-   7 2.49   8 2.49  11 2.49  19 2.49  20 2.49  22 2.49  24 2.49  26 2.49
                            27 2.49  35 2.49  38 2.49  39 2.49
  24  0.250  0.250  0.750-   5 2.49   8 2.49  12 2.49  17 2.49  20 2.49  21 2.49  23 2.49  27 2.49
                            28 2.49  36 2.49  39 2.49  40 2.49
  25  0.250  0.500  0.000-   9 2.49  10 2.49  13 2.49  21 2.49  22 2.49  26 2.49  28 2.49  29 2.49
                            32 2.49  37 2.49  41 2.49  44 2.49
  26  0.250  0.500  0.250-  10 2.49  11 2.49  14 2.49  22 2.49  23 2.49  25 2.49  27 2.49  29 2.49
                            30 2.49  38 2.49  41 2.49  42 2.49
  27  0.250  0.500  0.500-  11 2.49  12 2.49  15 2.49  23 2.49  24 2.49  26 2.49  28 2.49  30 2.49
                            31 2.49  39 2.49  42 2.49  43 2.49
  28  0.250  0.500  0.750-   9 2.49  12 2.49  16 2.49  21 2.49  24 2.49  25 2.49  27 2.49  31 2.49
                            32 2.49  40 2.49  43 2.49  44 2.49
  29  0.250  0.750  0.000-   1 2.49  13 2.49  14 2.49  17 2.49  20 2.49  25 2.49  26 2.49  30 2.49
                            32 2.49  41 2.49  45 2.49  48 2.49
  30  0.250  0.750  0.250-   2 2.49  14 2.49  15 2.49  17 2.49  18 2.49  26 2.49  27 2.49  29 2.49
                            31 2.49  42 2.49  45 2.49  46 2.49
  31  0.250  0.750  0.500-   3 2.49  15 2.49  16 2.49  18 2.49  19 2.49  27 2.49  28 2.49  30 2.49
                            32 2.49  43 2.49  46 2.49  47 2.49
  32  0.250  0.750  0.750-   4 2.49  13 2.49  16 2.49  19 2.49  20 2.49  25 2.49  28 2.49  29 2.49
                            31 2.49  44 2.49  47 2.49  48 2.49
  33  0.500  0.000  0.000-  17 2.49  18 2.49  21 2.49  34 2.49  36 2.49  37 2.49  40 2.49  45 2.49
                            46 2.49  49 2.49  52 2.49  61 2.49
  34  0.500  0.000  0.250-  18 2.49  19 2.49  22 2.49  33 2.49  35 2.49  37 2.49  38 2.49  46 2.49
                            47 2.49  49 2.49  50 2.49  62 2.49
  35  0.500  0.000  0.500-  19 2.49  20 2.49  23 2.49  34 2.49  36 2.49  38 2.49  39 2.49  47 2.49
                            48 2.49  50 2.49  51 2.49  63 2.49
  36  0.500  0.000  0.750-  17 2.49  20 2.49  24 2.49  33 2.49  35 2.49  39 2.49  40 2.49  45 2.49
                            48 2.49  51 2.49  52 2.49  64 2.49
  37  0.500  0.250  0.000-  21 2.49  22 2.49  25 2.49  33 2.49  34 2.49  38 2.49  40 2.49  41 2.49
                            44 2.49  49 2.49  53 2.49  56 2.49
  38  0.500  0.250  0.250-  22 2.49  23 2.49  26 2.49  34 2.49  35 2.49  37 2.49  39 2.49  41 2.49
                            42 2.49  50 2.49  53 2.49  54 2.49
  39  0.500  0.250  0.500-  23 2.49  24 2.49  27 2.49  35 2.49  36 2.49  38 2.49  40 2.49  42 2.49
                            43 2.49  51 2.49  54 2.49  55 2.49
  40  0.500  0.250  0.750-  21 2.49  24 2.49  28 2.49  33 2.49  36 2.49  37 2.49  39 2.49  43 2.49
                            44 2.49  52 2.49  55 2.49  56 2.49
  41  0.500  0.500  0.000-  25 2.49  26 2.49  29 2.49  37 2.49  38 2.49  42 2.49  44 2.49  45 2.49
                            48 2.49  53 2.49  57 2.49  60 2.49
  42  0.500  0.500  0.250-  26 2.49  27 2.49  30 2.49  38 2.49  39 2.49  41 2.49  43 2.49  45 2.49
                            46 2.49  54 2.49  57 2.49  58 2.49
  43  0.500  0.500  0.500-  27 2.49  28 2.49  31 2.49  39 2.49  40 2.49  42 2.49  44 2.49  46 2.49
                            47 2.49  55 2.49  58 2.49  59 2.49
  44  0.500  0.500  0.750-  25 2.49  28 2.49  32 2.49  37 2.49  40 2.49  41 2.49  43 2.49  47 2.49
                            48 2.49  56 2.49  59 2.49  60 2.49
  45  0.500  0.750  0.000-  17 2.49  29 2.49  30 2.49  33 2.49  36 2.49  41 2.49  42 2.49  46 2.49
                            48 2.49  57 2.49  61 2.49  64 2.49
  46  0.500  0.750  0.250-  18 2.49  30 2.49  31 2.49  33 2.49  34 2.49  42 2.49  43 2.49  45 2.49
                            47 2.49  58 2.49  61 2.49  62 2.49
  47  0.500  0.750  0.500-  19 2.49  31 2.49  32 2.49  34 2.49  35 2.49  43 2.49  44 2.49  46 2.49
                            48 2.49  59 2.49  62 2.49  63 2.49
  48  0.500  0.750  0.750-  20 2.49  29 2.49  32 2.49  35 2.49  36 2.49  41 2.49  44 2.49  45 2.49
                            47 2.49  60 2.49  63 2.49  64 2.49
  49  0.750  0.000  0.000-   1 2.49   4 2.49  13 2.49  33 2.49  34 2.49  37 2.49  50 2.49  52 2.49
                            53 2.49  56 2.49  61 2.49  62 2.49
  50  0.750  0.000  0.250-   1 2.49   2 2.49  14 2.49  34 2.49  35 2.49  38 2.49  49 2.49  51 2.49
                            53 2.49  54 2.49  62 2.49  63 2.49
  51  0.750  0.000  0.500-   2 2.49   3 2.49  15 2.49  35 2.49  36 2.49  39 2.49  50 2.49  52 2.49
                            54 2.49  55 2.49  63 2.49  64 2.49
  52  0.750  0.000  0.750-   3 2.49   4 2.49  16 2.49  33 2.49  36 2.49  40 2.49  49 2.49  51 2.49
                            55 2.49  56 2.49  61 2.49  64 2.49
  53  0.750  0.250  0.000-   1 2.49   5 2.49   8 2.49  37 2.49  38 2.49  41 2.49  49 2.49  50 2.49
                            54 2.49  56 2.49  57 2.49  60 2.49
  54  0.750  0.250  0.250-   2 2.49   5 2.49   6 2.49  38 2.49  39 2.49  42 2.49  50 2.49  51 2.49
                            53 2.49  55 2.49  57 2.49  58 2.49
  55  0.750  0.250  0.500-   3 2.49   6 2.49   7 2.49  39 2.49  40 2.49  43 2.49  51 2.49  52 2.49
                            54 2.49  56 2.49  58 2.49  59 2.49
  56  0.750  0.250  0.750-   4 2.49   7 2.49   8 2.49  37 2.49  40 2.49  44 2.49  49 2.49  52 2.49
                            53 2.49  55 2.49  59 2.49  60 2.49
  57  0.750  0.500  0.000-   5 2.49   9 2.49  12 2.49  41 2.49  42 2.49  45 2.49  53 2.49  54 2.49
                            58 2.49  60 2.49  61 2.49  64 2.49
  58  0.750  0.500  0.250-   6 2.49   9 2.49  10 2.49  42 2.49  43 2.49  46 2.49  54 2.49  55 2.49
                            57 2.49  59 2.49  61 2.49  62 2.49
  59  0.750  0.500  0.500-   7 2.49  10 2.49  11 2.49  43 2.49  44 2.49  47 2.49  55 2.49  56 2.49
                            58 2.49  60 2.49  62 2.49  63 2.49
  60  0.750  0.500  0.750-   8 2.49  11 2.49  12 2.49  41 2.49  44 2.49  48 2.49  53 2.49  56 2.49
                            57 2.49  59 2.49  63 2.49  64 2.49
  61  0.750  0.750  0.000-   9 2.49  13 2.49  16 2.49  33 2.49  45 2.49  46 2.49  49 2.49  52 2.49
                            57 2.49  58 2.49  62 2.49  64 2.49
  62  0.750  0.750  0.250-  10 2.49  13 2.49  14 2.49  34 2.49  46 2.49  47 2.49  49 2.49  50 2.49
                            58 2.49  59 2.49  61 2.49  63 2.49
  63  0.750  0.750  0.500-  11 2.49  14 2.49  15 2.49  35 2.49  47 2.49  48 2.49  50 2.49  51 2.49
                            59 2.49  60 2.49  62 2.49  64 2.49
  64  0.750  0.750  0.750-  12 2.49  15 2.49  16 2.49  36 2.49  45 2.49  48 2.49  51 2.49  52 2.49
                            57 2.49  60 2.49  61 2.49  63 2.49
 
  LATTYP: Found a face centered cubic cell.
 ALAT       =    14.1000000000
  
  Lattice vectors:
  
 A1 = (   0.0000000000,   7.0500000000,   7.0500000000)
 A2 = (   7.0500000000,   0.0000000000,   7.0500000000)
 A3 = (   7.0500000000,   7.0500000000,   0.0000000000)


Analysis of symmetry for initial positions (statically):
=====================================================================
 Subroutine PRICEL returns following result:
 
  LATTYP: Found a face centered cubic cell.
 ALAT       =     3.5250000000
  
  Lattice vectors:
  
 A1 = (   0.0000000000,   1.7625000000,   1.7625000000)
 A2 = (   1.7625000000,   0.0000000000,   1.7625000000)
 A3 = (   1.7625000000,   1.7625000000,   0.0000000000)
 
  64 primitive cells build up your supercell.
 

 Routine SETGRP: Setting up the symmetry group for a 
 face centered cubic supercell.


 Subroutine GETGRP returns: Found 48 space group operations
 (whereof 48 operations were pure point group operations)
 out of a pool of 48 trial point group operations.


The static configuration has the point symmetry O_h .


Analysis of symmetry for dynamics (positions and initial velocities):
=====================================================================
 Subroutine PRICEL returns following result:
 
  LATTYP: Found a face centered cubic cell.
 ALAT       =     3.5250000000
  
  Lattice vectors:
  
 A1 = (   0.0000000000,   1.7625000000,   1.7625000000)
 A2 = (   1.7625000000,   0.0000000000,   1.7625000000)
 A3 = (   1.7625000000,   1.7625000000,   0.0000000000)
 
  64 primitive cells build up your supercell.
 

 Routine SETGRP: Setting up the symmetry group for a 
 face centered cubic supercell.


 Subroutine GETGRP returns: Found 48 space group operations
 (whereof 48 operations were pure point group operations)
 out of a pool of 48 trial point group operations.


The dynamic configuration has the point symmetry O_h .


Analysis of structural, dynamic, and magnetic symmetry:
=====================================================================
 Subroutine PRICEL returns following result:
 
  LATTYP: Found a face centered cubic cell.
 ALAT       =     3.5250000000
  
  Lattice vectors:
  
 A1 = (   0.0000000000,   1.7625000000,   1.7625000000)
 A2 = (   1.7625000000,   0.0000000000,   1.7625000000)
 A3 = (   1.7625000000,   1.7625000000,   0.0000000000)
 
  64 primitive cells build up your supercell.
 

 Routine SETGRP: Setting up the symmetry group for a 
 face centered cubic supercell.


 Subroutine GETGRP returns: Found 48 space group operations
 (whereof 48 operations were pure point group operations)
 out of a pool of 48 trial point group operations.


The magnetic configuration has the point symmetry O_h .


 Subroutine INISYM returns: Found 48 space group operations
 (whereof 48 operations are pure point group operations),
 and found    64 'primitive' translations

 
 
 KPOINTS: Zr 15x15x15                             

Automatic generation of k-mesh.
Space group operators:
 irot       det(A)        alpha          n_x          n_y          n_z        tau_x        tau_y        tau_z
    1     1.000000     0.000000     1.000000     0.000000     0.000000     0.000000     0.000000     0.000000
    2    -1.000000     0.000000     1.000000     0.000000     0.000000     0.000000     0.000000     0.000000
    3     1.000000   120.000000    -0.577350    -0.577350    -0.577350     0.000000     0.000000     0.000000
    4    -1.000000   120.000000    -0.577350    -0.577350    -0.577350     0.000000     0.000000     0.000000
    5     1.000000   120.000000     0.577350     0.577350     0.577350     0.000000     0.000000     0.000000
    6    -1.000000   120.000000     0.577350     0.577350     0.577350     0.000000     0.000000     0.000000
    7     1.000000    90.000000     0.000000     0.000000    -1.000000     0.000000     0.000000     0.000000
    8    -1.000000    90.000000     0.000000     0.000000    -1.000000     0.000000     0.000000     0.000000
    9     1.000000   180.000000     0.000000     0.707107     0.707107     0.000000     0.000000     0.000000
   10    -1.000000   180.000000     0.000000     0.707107     0.707107     0.000000     0.000000     0.000000
   11     1.000000    90.000000     0.000000     1.000000     0.000000     0.000000     0.000000     0.000000
   12    -1.000000    90.000000     0.000000     1.000000     0.000000     0.000000     0.000000     0.000000
   13     1.000000   180.000000     0.000000     0.000000     1.000000     0.000000     0.000000     0.000000
   14    -1.000000   180.000000     0.000000     0.000000     1.000000     0.000000     0.000000     0.000000
   15     1.000000   120.000000    -0.577350     0.577350     0.577350     0.000000     0.000000     0.000000
   16    -1.000000   120.000000    -0.577350     0.577350     0.577350     0.000000     0.000000     0.000000
   17     1.000000   120.000000    -0.577350     0.577350    -0.577350     0.000000     0.000000     0.000000
   18    -1.000000   120.000000    -0.577350     0.577350    -0.577350     0.000000     0.000000     0.000000
   19     1.000000    90.000000     0.000000     0.000000     1.000000     0.000000     0.000000     0.000000
   20    -1.000000    90.000000     0.000000     0.000000     1.000000     0.000000     0.000000     0.000000
   21     1.000000    90.000000    -1.000000     0.000000     0.000000     0.000000     0.000000     0.000000
   22    -1.000000    90.000000    -1.000000     0.000000     0.000000     0.000000     0.000000     0.000000
   23     1.000000   180.000000     0.707107     0.000000     0.707107     0.000000     0.000000     0.000000
   24    -1.000000   180.000000     0.707107     0.000000     0.707107     0.000000     0.000000     0.000000
   25     1.000000   120.000000     0.577350    -0.577350     0.577350     0.000000     0.000000     0.000000
   26    -1.000000   120.000000     0.577350    -0.577350     0.577350     0.000000     0.000000     0.000000
   27     1.000000   120.000000    -0.577350    -0.577350     0.577350     0.000000     0.000000     0.000000
   28    -1.000000   120.000000    -0.577350    -0.577350     0.577350     0.000000     0.000000     0.000000
   29     1.000000   180.000000     1.000000     0.000000     0.000000     0.000000     0.000000     0.000000
   30    -1.000000   180.000000     1.000000     0.000000     0.000000     0.000000     0.000000     0.000000
   31     1.000000    90.000000     0.000000    -1.000000     0.000000     0.000000     0.000000     0.000000
   32    -1.000000    90.000000     0.000000    -1.000000     0.000000     0.000000     0.000000     0.000000
   33     1.000000   180.000000     0.707107     0.707107     0.000000     0.000000     0.000000     0.000000
   34    -1.000000   180.000000     0.707107     0.707107     0.000000     0.000000     0.000000     0.000000
   35     1.000000    90.000000     1.000000     0.000000     0.000000     0.000000     0.000000     0.000000
   36    -1.000000    90.000000     1.000000     0.000000     0.000000     0.000000     0.000000     0.000000
   37     1.000000   120.000000     0.577350    -0.577350    -0.577350     0.000000     0.000000     0.000000
   38    -1.000000   120.000000     0.577350    -0.577350    -0.577350     0.000000     0.000000     0.000000
   39     1.000000   180.000000     0.000000     1.000000     0.000000     0.000000     0.000000     0.000000
   40    -1.000000   180.000000     0.000000     1.000000     0.000000     0.000000     0.000000     0.000000
   41     1.000000   120.000000     0.577350     0.577350    -0.577350     0.000000     0.000000     0.000000
   42    -1.000000   120.000000     0.577350     0.577350    -0.577350     0.000000     0.000000     0.000000
   43     1.000000   180.000000     0.000000    -0.707107     0.707107     0.000000     0.000000     0.000000
   44    -1.000000   180.000000     0.000000    -0.707107     0.707107     0.000000     0.000000     0.000000
   45     1.000000   180.000000     0.707107    -0.707107     0.000000     0.000000     0.000000     0.000000
   46    -1.000000   180.000000     0.707107    -0.707107     0.000000     0.000000     0.000000     0.000000
   47     1.000000   180.000000     0.707107     0.000000    -0.707107     0.000000     0.000000     0.000000
   48    -1.000000   180.000000     0.707107     0.000000    -0.707107     0.000000     0.000000     0.000000
 
 Subroutine IBZKPT returns following result:
 ===========================================
 
 Found     10 irreducible k-points:
 
 Following reciprocal coordinates:
            Coordinates               Weight
  0.000000  0.000000  0.000000      1.000000
  0.200000  0.000000  0.000000      8.000000
  0.400000  0.000000  0.000000      8.000000
  0.200000  0.200000  0.000000      6.000000
  0.400000  0.200000  0.000000     24.000000
 -0.400000  0.200000  0.000000     24.000000
 -0.200000  0.200000  0.000000     12.000000
  0.400000  0.400000  0.000000      6.000000
 -0.400000  0.400000  0.000000     12.000000
 -0.400000  0.400000  0.200000     24.000000
 
 Following cartesian coordinates:
            Coordinates               Weight
  0.000000  0.000000  0.000000      1.000000
 -0.014184  0.014184  0.014184      8.000000
 -0.028369  0.028369  0.028369      8.000000
  0.000000  0.000000  0.028369      6.000000
 -0.014184  0.014184  0.042553     24.000000
  0.042553 -0.042553 -0.014184     24.000000
  0.028369 -0.028369  0.000000     12.000000
  0.000000  0.000000  0.056738      6.000000
  0.056738 -0.056738  0.000000     12.000000
  0.070922 -0.042553 -0.014184     24.000000
 
 
 Subroutine IBZKPT_HF returns following result:
 ==============================================
 
 Found    125 k-points in 1st BZ
 the following    125 k-points will be used (e.g. in the exchange kernel)
 Following reciprocal coordinates:   # in IRBZ
  0.000000  0.000000  0.000000    0.00800000   1 t-inv F
  0.200000  0.000000  0.000000    0.00800000   2 t-inv F
  0.400000  0.000000  0.000000    0.00800000   3 t-inv F
  0.200000  0.200000  0.000000    0.00800000   4 t-inv F
  0.400000  0.200000  0.000000    0.00800000   5 t-inv F
 -0.400000  0.200000  0.000000    0.00800000   6 t-inv F
 -0.200000  0.200000  0.000000    0.00800000   7 t-inv F
  0.400000  0.400000  0.000000    0.00800000   8 t-inv F
 -0.400000  0.400000  0.000000    0.00800000   9 t-inv F
 -0.400000  0.400000  0.200000    0.00800000  10 t-inv F
 -0.200000  0.000000  0.000000    0.00800000   2 t-inv F
  0.000000  0.200000  0.000000    0.00800000   2 t-inv F
  0.000000 -0.200000  0.000000    0.00800000   2 t-inv F
  0.000000  0.000000  0.200000    0.00800000   2 t-inv F
  0.000000  0.000000 -0.200000    0.00800000   2 t-inv F
  0.200000  0.200000  0.200000    0.00800000   2 t-inv F
 -0.200000 -0.200000 -0.200000    0.00800000   2 t-inv F
 -0.400000  0.000000  0.000000    0.00800000   3 t-inv F
  0.000000  0.400000  0.000000    0.00800000   3 t-inv F
  0.000000 -0.400000  0.000000    0.00800000   3 t-inv F
  0.000000  0.000000  0.400000    0.00800000   3 t-inv F
  0.000000  0.000000 -0.400000    0.00800000   3 t-inv F
  0.400000  0.400000  0.400000    0.00800000   3 t-inv F
 -0.400000 -0.400000 -0.400000    0.00800000   3 t-inv F
 -0.200000 -0.200000  0.000000    0.00800000   4 t-inv F
  0.000000  0.200000  0.200000    0.00800000   4 t-inv F
  0.000000 -0.200000 -0.200000    0.00800000   4 t-inv F
  0.200000  0.000000  0.200000    0.00800000   4 t-inv F
 -0.200000  0.000000 -0.200000    0.00800000   4 t-inv F
 -0.400000 -0.200000  0.000000    0.00800000   5 t-inv F
  0.000000  0.400000  0.200000    0.00800000   5 t-inv F
  0.000000 -0.400000 -0.200000    0.00800000   5 t-inv F
  0.200000  0.000000  0.400000    0.00800000   5 t-inv F
 -0.200000  0.000000 -0.400000    0.00800000   5 t-inv F
  0.200000  0.200000 -0.200000    0.00800000   5 t-inv F
 -0.200000 -0.200000  0.200000    0.00800000   5 t-inv F
  0.400000  0.200000  0.400000    0.00800000   5 t-inv F
 -0.400000 -0.200000 -0.400000    0.00800000   5 t-inv F
  0.200000  0.400000  0.000000    0.00800000   5 t-inv F
 -0.200000 -0.400000  0.000000    0.00800000   5 t-inv F
  0.200000 -0.200000 -0.200000    0.00800000   5 t-inv F
 -0.200000  0.200000  0.200000    0.00800000   5 t-inv F
  0.400000  0.400000  0.200000    0.00800000   5 t-inv F
 -0.400000 -0.400000 -0.200000    0.00800000   5 t-inv F
  0.000000  0.200000  0.400000    0.00800000   5 t-inv F
  0.000000 -0.200000 -0.400000    0.00800000   5 t-inv F
 -0.200000  0.200000 -0.200000    0.00800000   5 t-inv F
  0.200000 -0.200000  0.200000    0.00800000   5 t-inv F
  0.200000  0.400000  0.400000    0.00800000   5 t-inv F
 -0.200000 -0.400000 -0.400000    0.00800000   5 t-inv F
  0.400000  0.000000  0.200000    0.00800000   5 t-inv F
 -0.400000  0.000000 -0.200000    0.00800000   5 t-inv F
  0.400000 -0.200000  0.000000    0.00800000   6 t-inv F
  0.000000 -0.400000  0.200000    0.00800000   6 t-inv F
  0.000000  0.400000 -0.200000    0.00800000   6 t-inv F
  0.200000  0.000000 -0.400000    0.00800000   6 t-inv F
 -0.200000  0.000000  0.400000    0.00800000   6 t-inv F
  0.200000  0.200000  0.600000    0.00800000   6 t-inv F
 -0.200000 -0.200000 -0.600000    0.00800000   6 t-inv F
 -0.400000 -0.600000 -0.400000    0.00800000   6 t-inv F
  0.400000  0.600000  0.400000    0.00800000   6 t-inv F
  0.200000 -0.400000  0.000000    0.00800000   6 t-inv F
 -0.200000  0.400000  0.000000    0.00800000   6 t-inv F
 -0.600000 -0.200000 -0.200000    0.00800000   6 t-inv F
  0.600000  0.200000  0.200000    0.00800000   6 t-inv F
 -0.400000 -0.400000 -0.600000    0.00800000   6 t-inv F
  0.400000  0.400000  0.600000    0.00800000   6 t-inv F
  0.000000  0.200000 -0.400000    0.00800000   6 t-inv F
  0.000000 -0.200000  0.400000    0.00800000   6 t-inv F
 -0.200000 -0.600000 -0.200000    0.00800000   6 t-inv F
  0.200000  0.600000  0.200000    0.00800000   6 t-inv F
 -0.600000 -0.400000 -0.400000    0.00800000   6 t-inv F
  0.600000  0.400000  0.400000    0.00800000   6 t-inv F
 -0.400000  0.000000  0.200000    0.00800000   6 t-inv F
  0.400000  0.000000 -0.200000    0.00800000   6 t-inv F
  0.200000 -0.200000  0.000000    0.00800000   7 t-inv F
  0.000000 -0.200000  0.200000    0.00800000   7 t-inv F
  0.000000  0.200000 -0.200000    0.00800000   7 t-inv F
  0.200000  0.000000 -0.200000    0.00800000   7 t-inv F
 -0.200000  0.000000  0.200000    0.00800000   7 t-inv F
  0.200000  0.200000  0.400000    0.00800000   7 t-inv F
 -0.200000 -0.200000 -0.400000    0.00800000   7 t-inv F
 -0.200000 -0.400000 -0.200000    0.00800000   7 t-inv F
  0.200000  0.400000  0.200000    0.00800000   7 t-inv F
 -0.400000 -0.200000 -0.200000    0.00800000   7 t-inv F
  0.400000  0.200000  0.200000    0.00800000   7 t-inv F
 -0.400000 -0.400000  0.000000    0.00800000   8 t-inv F
  0.000000  0.400000  0.400000    0.00800000   8 t-inv F
  0.000000 -0.400000 -0.400000    0.00800000   8 t-inv F
  0.400000  0.000000  0.400000    0.00800000   8 t-inv F
 -0.400000  0.000000 -0.400000    0.00800000   8 t-inv F
  0.400000 -0.400000  0.000000    0.00800000   9 t-inv F
  0.000000 -0.400000  0.400000    0.00800000   9 t-inv F
  0.000000  0.400000 -0.400000    0.00800000   9 t-inv F
  0.400000  0.000000 -0.400000    0.00800000   9 t-inv F
 -0.400000  0.000000  0.400000    0.00800000   9 t-inv F
  0.400000  0.400000  0.800000    0.00800000   9 t-inv F
 -0.400000 -0.400000 -0.800000    0.00800000   9 t-inv F
 -0.400000 -0.800000 -0.400000    0.00800000   9 t-inv F
  0.400000  0.800000  0.400000    0.00800000   9 t-inv F
 -0.800000 -0.400000 -0.400000    0.00800000   9 t-inv F
  0.800000  0.400000  0.400000    0.00800000   9 t-inv F
  0.400000 -0.400000 -0.200000    0.00800000  10 t-inv F
  0.200000 -0.400000  0.400000    0.00800000  10 t-inv F
 -0.200000  0.400000 -0.400000    0.00800000  10 t-inv F
  0.400000  0.200000 -0.400000    0.00800000  10 t-inv F
 -0.400000 -0.200000  0.400000    0.00800000  10 t-inv F
  0.400000  0.200000  0.800000    0.00800000  10 t-inv F
 -0.400000 -0.200000 -0.800000    0.00800000  10 t-inv F
 -0.400000 -0.800000 -0.600000    0.00800000  10 t-inv F
  0.400000  0.800000  0.600000    0.00800000  10 t-inv F
  0.200000  0.600000 -0.200000    0.00800000  10 t-inv F
 -0.200000 -0.600000  0.200000    0.00800000  10 t-inv F
  0.200000 -0.600000 -0.200000    0.00800000  10 t-inv F
 -0.200000  0.600000  0.200000    0.00800000  10 t-inv F
 -0.800000 -0.200000 -0.400000    0.00800000  10 t-inv F
  0.800000  0.200000  0.400000    0.00800000  10 t-inv F
 -0.600000 -0.400000 -0.800000    0.00800000  10 t-inv F
  0.600000  0.400000  0.800000    0.00800000  10 t-inv F
 -0.200000  0.200000  0.600000    0.00800000  10 t-inv F
  0.200000 -0.200000 -0.600000    0.00800000  10 t-inv F
 -0.400000 -0.800000 -0.200000    0.00800000  10 t-inv F
  0.400000  0.800000  0.200000    0.00800000  10 t-inv F
 -0.800000 -0.600000 -0.400000    0.00800000  10 t-inv F
  0.800000  0.600000  0.400000    0.00800000  10 t-inv F


--------------------------------------------------------------------------------------------------------




 Dimension of arrays:
   k-points           NKPTS =     10   k-points in BZ     NKDIM =     10   number of bands    NBANDS=    648
   number of dos      NEDOS =    301   number of ions     NIONS =     64
   non local maximal  LDIM  =      6   non local SUM 2l+1 LMDIM =     18
   total plane-waves  NPLWV = 262144
   max r-space proj   IRMAX =   4722   max aug-charges    IRDMAX=   8457
   dimension x,y,z NGX =    64 NGY =   64 NGZ =   64
   dimension x,y,z NGXF=   128 NGYF=  128 NGZF=  128
   support grid    NGXF=   128 NGYF=  128 NGZF=  128
   ions per type =              64
 NGX,Y,Z   is equivalent  to a cutoff of  10.67, 10.67, 10.67 a.u.
 NGXF,Y,Z  is equivalent  to a cutoff of  21.34, 21.34, 21.34 a.u.


 I would recommend the setting:
   dimension x,y,z NGX =    62 NGY =   62 NGZ =   62
 SYSTEM =  phonon of Zr bcc - omiga                
 POSCAR =  Supercell by Yi Wang                    

 Startparameter for this run:
   NWRITE =      0    write-flag & timer
   PREC   = a         normal or accurate (medium, high low for compatibility)
   ISTART =      0    job   : 0-new  1-cont  2-samecut
   ICHARG =      2    charge: 1-file 2-atom 10-const
   ISPIN  =      2    spin polarized calculation?
   LNONCOLLINEAR =      F non collinear calculations
   LSORBIT =      F    spin-orbit coupling
   INIWAV =      1    electr: 0-lowe 1-rand  2-diag
   LASPH  =      F    aspherical Exc in radial PAW
   METAGGA=      F    non-selfconsistent MetaGGA calc.

 Electronic Relaxation 1
   ENCUT  =  367.9 eV  27.04 Ry    5.20 a.u.  15.59 15.59 15.59*2*pi/ulx,y,z
   ENINI  =  367.9     initial cutoff
   ENAUG  =  703.4 eV  augmentation charge cutoff
   NELM   =     60;   NELMIN=  2; NELMDL=  0     # of ELM steps 
   EDIFF  = 0.1E-05   stopping-criterion for ELM
   LREAL  =      T    real-space projection
   NLSPLINE    = F    spline interpolate recip. space projectors
   LCOMPAT=      F    compatible to vasp.4.4
   GGA_COMPAT  = T    GGA compatible to vasp.4.4-vasp.4.6
   LMAXPAW     = -100 max onsite density
   LMAXMIX     =    2 max onsite mixed and CHGCAR
   VOSKOWN=      0    Vosko Wilk Nusair interpolation
   ROPT   =   -0.00025
 Ionic relaxation
   EDIFFG = 0.1E-04   stopping-criterion for IOM
   NSW    =    805    number of steps for IOM
   NBLOCK =      1;   KBLOCK =      1    inner block; outer block 
   IBRION =      6    ionic relax: 0-MD 1-quasi-New 2-CG
   NFREE  =      2    steps in history (QN), initial steepest desc. (CG)
   ISIF   =      2    stress and relaxation
   IWAVPR =     11    prediction:  0-non 1-charg 2-wave 3-comb
   ISYM   =      2    0-nonsym 1-usesym 2-fastsym
   LCORR  =      T    Harris-Foulkes like correction to forces

   POTIM  = 0.5000    time-step for ionic-motion
   TEIN   =    0.0    initial temperature
   TEBEG  =    0.0;   TEEND  =   0.0 temperature during run
   SMASS  =  -3.00    Nose mass-parameter (am)
   estimated Nose-frequenzy (Omega)   =  0.10E-29 period in steps =****** mass=  -0.227E-26a.u.
   SCALEE = 1.0000    scale energy and forces
   NPACO  =    256;   APACO  = 16.0  distance and # of slots for P.C.
   PSTRESS=    0.0 pullay stress

  Mass of Ions in am
   POMASS =  58.69
  Ionic Valenz
   ZVAL   =  16.00
  Atomic Wigner-Seitz radii
   RWIGS  =  -1.00
  virtual crystal weights 
   VCA    =   1.00
   NELECT =    1024.0000    total number of electrons
   NUPDOWN=      -1.0000    fix difference up-down

 DOS related values:
   EMIN   =  10.00;   EMAX   =-10.00  energy-range for DOS
   EFERMI =   0.00
   ISMEAR =     1;   SIGMA  =   0.20  broadening in eV -4-tet -1-fermi 0-gaus

 Electronic relaxation 2 (details)
   IALGO  =     38    algorithm
   LDIAG  =      T    sub-space diagonalisation (order eigenvalues)
   LSUBROT=      F    optimize rotation matrix (better conditioning)
   TURBO    =      0    0=normal 1=particle mesh
   IRESTART =      0    0=no restart 2=restart with 2 vectors
   NREBOOT  =      0    no. of reboots
   NMIN     =      0    reboot dimension
   EREF     =   0.00    reference energy to select bands
   IMIX   =      4    mixing-type and parameters
     AMIX     =   0.40;   BMIX     =  1.00
     AMIX_MAG =   1.60;   BMIX_MAG =  1.00
     AMIN     =   0.10
     WC   =   100.;   INIMIX=   1;  MIXPRE=   1;  MAXMIX= -45

 Intra band minimization:
   WEIMIN = 0.0010     energy-eigenvalue tresh-hold
   EBREAK =  0.39E-09  absolut break condition
   DEPER  =   0.30     relativ break condition  

   TIME   =   0.40     timestep for ELM

  volume/ion in A,a.u.               =      10.95        73.89
  Fermi-wavevector in a.u.,A,eV,Ry     =   1.857701  3.510545 46.954402  3.451051
  Thomas-Fermi vector in A             =   2.906309
 
 Write flags
   LWAVE  =      T    write WAVECAR
   LCHARG =      T    write CHGCAR
   LVTOT  =      F    write LOCPOT, total local potential
   LVHAR  =      F    write LOCPOT, Hartree potential only
   LELF   =      F    write electronic localiz. function (ELF)
   LORBIT =      0    0 simple, 1 ext, 2 COOP (PROOUT)


 Dipole corrections
   LMONO  =      F    monopole corrections only (constant potential shift)
   LDIPOL =      F    correct potential (dipole corrections)
   IDIPOL =      0    1-x, 2-y, 3-z, 4-all directions 
   EPSILON=  1.0000000 bulk dielectric constant

 Exchange correlation treatment:
   GGA     =    --    GGA type
   LEXCH   =     8    internal setting for exchange type
   VOSKOWN=      0    Vosko Wilk Nusair interpolation
   LHFCALC =     F    Hartree Fock is set to
   LHFONE  =     F    Hartree Fock one center treatment
   AEXX    =    0.0000 exact exchange contribution

 Linear response parameters
   LEPSILON=     F    determine dielectric tensor
   LRPA    =     F    only Hartree local field effects (RPA)
   LNABLA  =     F    use nabla operator in PAW spheres
   LVEL    =     F    velocity operator in full k-point grid
   LINTERFAST=   F  fast interpolation
   KINTER  =     0    interpolate to denser k-point grid
   CSHIFT  =0.1000    complex shift for real part using Kramers Kronig
   OMEGAMAX=  -1.0    maximum frequency
   DEG_THRESHOLD= 0.2000000E-02 threshold for treating states as degnerate
   RTIME   =    0.100 relaxation time in fs

 Orbital magnetization related:
   ORBITALMAG=     F  switch on orbital magnetization
   LCHIMAG   =     F  perturbation theory with respect to B field
   DQ        =  0.001000  dq finite difference perturbation B field



--------------------------------------------------------------------------------------------------------


 finite differences with symmetry
 charge density and potential will be updated during run
 spin polarized calculation
 Variant of blocked Davidson
 Davidson routine will perform the subspace rotation
 perform sub-space diagonalisation
    after iterative eigenvector-optimisation
 modified Broyden-mixing scheme, WC =      100.0
 initial mixing is a Kerker type mixing with AMIX =  0.4000 and BMIX =      1.0000
 Hartree-type preconditioning will be used
 using additional bands          136
 real space projection scheme for non local part
 use partial core corrections
 calculate Harris-corrections to forces 
   (improved forces if not selfconsistent)
 use gradient corrections 
 use of overlap-Matrix (Vanderbilt PP)
 Methfessel and Paxton  Order N= 1 SIGMA  =   0.20


--------------------------------------------------------------------------------------------------------


  energy-cutoff  :      367.94
  volume of cell :      700.81
      direct lattice vectors                 reciprocal lattice vectors
     0.000000000  7.050000000  7.050000000    -0.070921986  0.070921986  0.070921986
     7.050000000  0.000000000  7.050000000     0.070921986 -0.070921986  0.070921986
     7.050000000  7.050000000  0.000000000     0.070921986  0.070921986 -0.070921986

  length of vectors
     9.970205615  9.970205615  9.970205615     0.122840483  0.122840483  0.122840483


 
 k-points in units of 2pi/SCALE and weight: Zr 15x15x15                             
   0.00000000  0.00000000  0.00000000       0.008
  -0.01418440  0.01418440  0.01418440       0.064
  -0.02836879  0.02836879  0.02836879       0.064
   0.00000000  0.00000000  0.02836879       0.048
  -0.01418440  0.01418440  0.04255319       0.192
   0.04255319 -0.04255319 -0.01418440       0.192
   0.02836879 -0.02836879  0.00000000       0.096
   0.00000000  0.00000000  0.05673759       0.048
   0.05673759 -0.05673759  0.00000000       0.096
   0.07092199 -0.04255319 -0.01418440       0.192
 
 k-points in reciprocal lattice and weights: Zr 15x15x15                             
   0.00000000  0.00000000  0.00000000       0.008
   0.20000000  0.00000000  0.00000000       0.064
   0.40000000  0.00000000  0.00000000       0.064
   0.20000000  0.20000000  0.00000000       0.048
   0.40000000  0.20000000  0.00000000       0.192
  -0.40000000  0.20000000  0.00000000       0.192
  -0.20000000  0.20000000  0.00000000       0.096
   0.40000000  0.40000000  0.00000000       0.048
  -0.40000000  0.40000000  0.00000000       0.096
  -0.40000000  0.40000000  0.20000000       0.192
 
 position of ions in fractional coordinates (direct lattice) 
   0.00000000  0.00000000  0.00000000
   0.00000000  0.00000000  0.25000000
   0.00000000  0.00000000  0.50000000
   0.00000000  0.00000000  0.75000000
   0.00000000  0.25000000  0.00000000
   0.00000000  0.25000000  0.25000000
   0.00000000  0.25000000  0.50000000
   0.00000000  0.25000000  0.75000000
   0.00000000  0.50000000  0.00000000
   0.00000000  0.50000000  0.25000000
   0.00000000  0.50000000  0.50000000
   0.00000000  0.50000000  0.75000000
   0.00000000  0.75000000  0.00000000
   0.00000000  0.75000000  0.25000000
   0.00000000  0.75000000  0.50000000
   0.00000000  0.75000000  0.75000000
   0.25000000  0.00000000  0.00000000
   0.25000000  0.00000000  0.25000000
   0.25000000  0.00000000  0.50000000
   0.25000000  0.00000000  0.75000000
   0.25000000  0.25000000  0.00000000
   0.25000000  0.25000000  0.25000000
   0.25000000  0.25000000  0.50000000
   0.25000000  0.25000000  0.75000000
   0.25000000  0.50000000  0.00000000
   0.25000000  0.50000000  0.25000000
   0.25000000  0.50000000  0.50000000
   0.25000000  0.50000000  0.75000000
   0.25000000  0.75000000  0.00000000
   0.25000000  0.75000000  0.25000000
   0.25000000  0.75000000  0.50000000
   0.25000000  0.75000000  0.75000000
   0.50000000  0.00000000  0.00000000
   0.50000000  0.00000000  0.25000000
   0.50000000  0.00000000  0.50000000
   0.50000000  0.00000000  0.75000000
   0.50000000  0.25000000  0.00000000
   0.50000000  0.25000000  0.25000000
   0.50000000  0.25000000  0.50000000
   0.50000000  0.25000000  0.75000000
   0.50000000  0.50000000  0.00000000
   0.50000000  0.50000000  0.25000000
   0.50000000  0.50000000  0.50000000
   0.50000000  0.50000000  0.75000000
   0.50000000  0.75000000  0.00000000
   0.50000000  0.75000000  0.25000000
   0.50000000  0.75000000  0.50000000
   0.50000000  0.75000000  0.75000000
   0.75000000  0.00000000  0.00000000
   0.75000000  0.00000000  0.25000000
   0.75000000  0.00000000  0.50000000
   0.75000000  0.00000000  0.75000000
   0.75000000  0.25000000  0.00000000
   0.75000000  0.25000000  0.25000000
   0.75000000  0.25000000  0.50000000
   0.75000000  0.25000000  0.75000000
   0.75000000  0.50000000  0.00000000
   0.75000000  0.50000000  0.25000000
   0.75000000  0.50000000  0.50000000
   0.75000000  0.50000000  0.75000000
   0.75000000  0.75000000  0.00000000
   0.75000000  0.75000000  0.25000000
   0.75000000  0.75000000  0.50000000
   0.75000000  0.75000000  0.75000000
 
 position of ions in cartesian coordinates  (Angst):
   0.00000000  0.00000000  0.00000000
   1.76250000  1.76250000  0.00000000
   3.52500000  3.52500000  0.00000000
   5.28750000  5.28750000  0.00000000
   1.76250000  0.00000000  1.76250000
   3.52500000  1.76250000  1.76250000
   5.28750000  3.52500000  1.76250000
   7.05000000  5.28750000  1.76250000
   3.52500000  0.00000000  3.52500000
   5.28750000  1.76250000  3.52500000
   7.05000000  3.52500000  3.52500000
   8.81250000  5.28750000  3.52500000
   5.28750000  0.00000000  5.28750000
   7.05000000  1.76250000  5.28750000
   8.81250000  3.52500000  5.28750000
  10.57500000  5.28750000  5.28750000
   0.00000000  1.76250000  1.76250000
   1.76250000  3.52500000  1.76250000
   3.52500000  5.28750000  1.76250000
   5.28750000  7.05000000  1.76250000
   1.76250000  1.76250000  3.52500000
   3.52500000  3.52500000  3.52500000
   5.28750000  5.28750000  3.52500000
   7.05000000  7.05000000  3.52500000
   3.52500000  1.76250000  5.28750000
   5.28750000  3.52500000  5.28750000
   7.05000000  5.28750000  5.28750000
   8.81250000  7.05000000  5.28750000
   5.28750000  1.76250000  7.05000000
   7.05000000  3.52500000  7.05000000
   8.81250000  5.28750000  7.05000000
  10.57500000  7.05000000  7.05000000
   0.00000000  3.52500000  3.52500000
   1.76250000  5.28750000  3.52500000
   3.52500000  7.05000000  3.52500000
   5.28750000  8.81250000  3.52500000
   1.76250000  3.52500000  5.28750000
   3.52500000  5.28750000  5.28750000
   5.28750000  7.05000000  5.28750000
   7.05000000  8.81250000  5.28750000
   3.52500000  3.52500000  7.05000000
   5.28750000  5.28750000  7.05000000
   7.05000000  7.05000000  7.05000000
   8.81250000  8.81250000  7.05000000
   5.28750000  3.52500000  8.81250000
   7.05000000  5.28750000  8.81250000
   8.81250000  7.05000000  8.81250000
  10.57500000  8.81250000  8.81250000
   0.00000000  5.28750000  5.28750000
   1.76250000  7.05000000  5.28750000
   3.52500000  8.81250000  5.28750000
   5.28750000 10.57500000  5.28750000
   1.76250000  5.28750000  7.05000000
   3.52500000  7.05000000  7.05000000
   5.28750000  8.81250000  7.05000000
   7.05000000 10.57500000  7.05000000
   3.52500000  5.28750000  8.81250000
   5.28750000  7.05000000  8.81250000
   7.05000000  8.81250000  8.81250000
   8.81250000 10.57500000  8.81250000
   5.28750000  5.28750000 10.57500000
   7.05000000  7.05000000 10.57500000
   8.81250000  8.81250000 10.57500000
  10.57500000 10.57500000 10.57500000
 


--------------------------------------------------------------------------------------------------------


 k-point  1 :   0.0000 0.0000 0.0000  plane waves:   11191
 k-point  2 :   0.2000 0.0000 0.0000  plane waves:   11245
 k-point  3 :   0.4000 0.0000 0.0000  plane waves:   11246
 k-point  4 :   0.2000 0.2000 0.0000  plane waves:   11238
 k-point  5 :   0.4000 0.2000 0.0000  plane waves:   11235
 k-point  6 :  -0.4000 0.2000 0.0000  plane waves:   11199
 k-point  7 :  -0.2000 0.2000 0.0000  plane waves:   11241
 k-point  8 :   0.4000 0.4000 0.0000  plane waves:   11214
 k-point  9 :  -0.4000 0.4000 0.0000  plane waves:   11220
 k-point 10 :  -0.4000 0.4000 0.2000  plane waves:   11235

 maximum and minimum number of plane-waves per node :     11246    11191

 maximum number of plane-waves:     11246
 maximum index in each direction: 
   IXMAX=   15   IYMAX=   15   IZMAX=   15
   IXMIN=  -15   IYMIN=  -15   IZMIN=  -15

 NGX is ok and might be reduce to  62
 NGY is ok and might be reduce to  62
 NGZ is ok and might be reduce to  62

 serial   3D FFT for wavefunctions
 parallel 3D FFT for charge:
    minimum data exchange during FFTs selected (reduces bandwidth)


 total amount of memory used by VASP on root node   804150. kBytes
========================================================================

   base      :      30000. kBytes
   nonlr-proj:      51103. kBytes
   fftplans  :      18931. kBytes
   grid      :      59310. kBytes
   one-center:       1990. kBytes
   wavefun   :     642816. kBytes
 
     INWAV:  cpu time    0.0010: real time    0.0000
 Broyden mixing: mesh for mixing (old mesh)
   NGX = 31   NGY = 31   NGZ = 31
  (NGX  =128   NGY  =128   NGZ  =128)
  gives a total of  29791 points

 initial charge density was supplied:
 charge density of overlapping atoms calculated
 number of electron    1024.0000000 magnetization      64.0000000
 keeping initial charge density in first step


--------------------------------------------------------------------------------------------------------


 Maximum index for non-local projection operator         4537
 Maximum index for augmentation-charges         1989 (set IRDMAX)


--------------------------------------------------------------------------------------------------------


 First call to EWALD:  gamma=   0.200
 Maximum number of real-space cells 3x 3x 3
 Maximum number of reciprocal cells 3x 3x 3

 FEWALD executed in parallel
    FEWALD:  cpu time    0.0300: real time    0.0298


----------------------------------------- Iteration    1(   1)  ---------------------------------------


    POTLOK:  cpu time    1.2868: real time    1.3087
    SETDIJ:  cpu time    0.2440: real time    0.2435
     EDDAV:  cpu time  662.5023: real time  661.9803
       DOS:  cpu time    0.0400: real time    0.0391
    --------------------------------------------
      LOOP:  cpu time  664.0740: real time  663.5749

 eigenvalue-minimisations  : 30176
 total energy-change (2. order) : 0.1392039E+05  (-0.5413967E+05)
 number of electron    1024.0000000 magnetization      64.0000000
 augmentation part     1024.0000000 magnetization      64.0000000

 Free energy of the ion-electron system (eV)
  ---------------------------------------------------
  alpha Z        PSCENC =      9846.09864404
  Ewald energy   TEWEN  =   -153431.04596335
  -Hartree energ DENC   =    -61842.66455428
  -exchange      EXHF   =         0.00000000
  -V(xc)+E(xc)   XCENC  =      5718.00711085
  PAW double counting   =    172361.15642774  -181272.45834873
  entropy T*S    EENTRO =         0.01037299
  eigenvalues    EBANDS =     -1472.00196837
  atomic energy  EATOM  =    224013.29143063
  Solvation  Ediel_sol  =         0.00000000
  ---------------------------------------------------
  free energy    TOTEN  =     13920.39315152 eV

  energy without entropy =    13920.38277854  energy(sigma->0) =    13920.38969386


--------------------------------------------------------------------------------------------------------




----------------------------------------- Iteration    1(   2)  ---------------------------------------


     EDDAV:  cpu time  580.7607: real time  580.2903
       DOS:  cpu time    0.0400: real time    0.0387
    --------------------------------------------
      LOOP:  cpu time  580.8017: real time  580.3396

 eigenvalue-minimisations  : 25920
 total energy-change (2. order) :-0.1310377E+05  (-0.1268252E+05)
 number of electron    1024.0000000 magnetization      64.0000000
 augmentation part     1024.0000000 magnetization      64.0000000

 Free energy of the ion-electron system (eV)
  ---------------------------------------------------
  alpha Z        PSCENC =      9846.09864404
  Ewald energy   TEWEN  =   -153431.04596335
  -Hartree energ DENC   =    -61842.66455428
  -exchange      EXHF   =         0.00000000
  -V(xc)+E(xc)   XCENC  =      5718.00711085
  PAW double counting   =    172361.15642774  -181272.45834873
  entropy T*S    EENTRO =         0.00528621
  eigenvalues    EBANDS =    -14575.77187136
  atomic energy  EATOM  =    224013.29143063
  Solvation  Ediel_sol  =         0.00000000
  ---------------------------------------------------
  free energy    TOTEN  =       816.61816175 eV

  energy without entropy =      816.61287554  energy(sigma->0) =      816.61639968


--------------------------------------------------------------------------------------------------------




----------------------------------------- Iteration    1(   3)  ---------------------------------------


     EDDAV:  cpu time  592.5769: real time  592.0944
       DOS:  cpu time    0.0370: real time    0.0363
    --------------------------------------------
      LOOP:  cpu time  592.6239: real time  592.1418

 eigenvalue-minimisations  : 26680
 total energy-change (2. order) :-0.1186798E+04  (-0.9816217E+03)
 number of electron    1024.0000000 magnetization      64.0000000
 augmentation part     1024.0000000 magnetization      64.0000000

 Free energy of the ion-electron system (eV)
  ---------------------------------------------------
  alpha Z        PSCENC =      9846.09864404
  Ewald energy   TEWEN  =   -153431.04596335
  -Hartree energ DENC   =    -61842.66455428
  -exchange      EXHF   =         0.00000000
  -V(xc)+E(xc)   XCENC  =      5718.00711085
  PAW double counting   =    172361.15642774  -181272.45834873
  entropy T*S    EENTRO =        -0.00799358
  eigenvalues    EBANDS =    -15762.55673920
  atomic energy  EATOM  =    224013.29143063
  Solvation  Ediel_sol  =         0.00000000
  ---------------------------------------------------
  free energy    TOTEN  =      -370.17998587 eV

  energy without entropy =     -370.17199229  energy(sigma->0) =     -370.17732134


--------------------------------------------------------------------------------------------------------




----------------------------------------- Iteration    1(   4)  ---------------------------------------


     EDDAV:  cpu time  611.0821: real time  610.5883
       DOS:  cpu time    0.0310: real time    0.0306
    --------------------------------------------
      LOOP:  cpu time  611.1141: real time  610.6194

 eigenvalue-minimisations  : 27800
 total energy-change (2. order) :-0.6036290E+02  (-0.5897173E+02)
 number of electron    1024.0000000 magnetization      64.0000000
 augmentation part     1024.0000000 magnetization      64.0000000

 Free energy of the ion-electron system (eV)
  ---------------------------------------------------
  alpha Z        PSCENC =      9846.09864404
  Ewald energy   TEWEN  =   -153431.04596335
  -Hartree energ DENC   =    -61842.66455428
  -exchange      EXHF   =         0.00000000
  -V(xc)+E(xc)   XCENC  =      5718.00711085
  PAW double counting   =    172361.15642774  -181272.45834873
  entropy T*S    EENTRO =         0.05334431
  eigenvalues    EBANDS =    -15822.98097737
  atomic energy  EATOM  =    224013.29143063
  Solvation  Ediel_sol  =         0.00000000
  ---------------------------------------------------
  free energy    TOTEN  =      -430.54288615 eV

  energy without entropy =     -430.59623046  energy(sigma->0) =     -430.56066759


--------------------------------------------------------------------------------------------------------




----------------------------------------- Iteration    1(   5)  ---------------------------------------


     EDDAV:  cpu time  605.6739: real time  605.1873
       DOS:  cpu time    0.0410: real time    0.0413
    CHARGE:  cpu time   25.7411: real time   25.7203
    MIXING:  cpu time    0.0440: real time    0.0429
    --------------------------------------------
      LOOP:  cpu time  631.5010: real time  630.9924

 eigenvalue-minimisations  : 27480
 total energy-change (2. order) :-0.8808360E+00  (-0.8802786E+00)
 number of electron    1023.9998147 magnetization      57.9311233
 augmentation part      573.3081316 magnetization      46.2924364

 Broyden mixing:
  rms(total) = 0.68004E+01    rms(broyden)= 0.67892E+01
  rms(prec ) = 0.92470E+01
  weight for this iteration     100.00

 Free energy of the ion-electron system (eV)
  ---------------------------------------------------
  alpha Z        PSCENC =      9846.09864404
  Ewald energy   TEWEN  =   -153431.04596335
  -Hartree energ DENC   =    -61842.66455428
  -exchange      EXHF   =         0.00000000
  -V(xc)+E(xc)   XCENC  =      5718.00711085
  PAW double counting   =    172361.15642774  -181272.45834873
  entropy T*S    EENTRO =         0.05416084
  eigenvalues    EBANDS =    -15823.86262993
  atomic energy  EATOM  =    224013.29143063
  Solvation  Ediel_sol  =         0.00000000
  ---------------------------------------------------
  free energy    TOTEN  =      -431.42372219 eV

  energy without entropy =     -431.47788303  energy(sigma->0) =     -431.44177580


--------------------------------------------------------------------------------------------------------




----------------------------------------- Iteration    1(   6)  ---------------------------------------


    POTLOK:  cpu time    1.1918: real time    1.1910
    SETDIJ:  cpu time    0.1990: real time    0.1986
     EDDAV:  cpu time  600.6297: real time  600.1465
       DOS:  cpu time    0.0300: real time    0.0301
    CHARGE:  cpu time   25.2392: real time   25.2188
    MIXING:  cpu time    0.0440: real time    0.0431
    --------------------------------------------
      LOOP:  cpu time  627.3336: real time  626.8289

 eigenvalue-minimisations  : 27304
 total energy-change (2. order) : 0.3544470E+02  (-0.5935259E+02)
 number of electron    1023.9997977 magnetization      50.5536216
 augmentation part      629.1663619 magnetization      45.7039424

 Broyden mixing:
  rms(total) = 0.49109E+01    rms(broyden)= 0.49096E+01
  rms(prec ) = 0.61505E+01
  weight for this iteration     100.00

 eigenvalues of (default mixing * dielectric matrix)
  average eigenvalue GAMMA=   0.5547
  0.5547

 Free energy of the ion-electron system (eV)
  ---------------------------------------------------
  alpha Z        PSCENC =      9846.09864404
  Ewald energy   TEWEN  =   -153431.04596335
  -Hartree energ DENC   =    -58647.51818115
  -exchange      EXHF   =         0.00000000
  -V(xc)+E(xc)   XCENC  =      5595.33795303
  PAW double counting   =    168083.94543959  -176682.37787861
  entropy T*S    EENTRO =        -0.28132638
  eigenvalues    EBANDS =    -19173.42914101
  atomic energy  EATOM  =    224013.29143063
  Solvation  Ediel_sol  =         0.00000000
  ---------------------------------------------------
  free energy    TOTEN  =      -395.97902323 eV

  energy without entropy =     -395.69769684  energy(sigma->0) =     -395.88524777


--------------------------------------------------------------------------------------------------------




----------------------------------------- Iteration    1(   7)  ---------------------------------------


    POTLOK:  cpu time    1.1748: real time    1.1742
    SETDIJ:  cpu time    0.1990: real time    0.1987
     EDDAV:  cpu time  597.1382: real time  596.6567
       DOS:  cpu time    0.0200: real time    0.0208
    CHARGE:  cpu time   25.1692: real time   25.1488
    MIXING:  cpu time    0.0440: real time    0.0423
    --------------------------------------------
      LOOP:  cpu time  623.7452: real time  623.2422

 eigenvalue-minimisations  : 27184
 total energy-change (2. order) : 0.2763331E+02  (-0.1115410E+02)
 number of electron    1023.9998047 magnetization      43.1723763
 augmentation part      605.8267870 magnetization      35.4471405

 Broyden mixing:
  rms(total) = 0.58792E+00    rms(broyden)= 0.58577E+00
  rms(prec ) = 0.71085E+00
  weight for this iteration     100.00

 eigenvalues of (default mixing * dielectric matrix)
  average eigenvalue GAMMA=   0.8512
  1.1154  0.5870

 Free energy of the ion-electron system (eV)
  ---------------------------------------------------
  alpha Z        PSCENC =      9846.09864404
  Ewald energy   TEWEN  =   -153431.04596335
  -Hartree energ DENC   =    -59771.55194605
  -exchange      EXHF   =         0.00000000
  -V(xc)+E(xc)   XCENC  =      5637.44583709
  PAW double counting   =    170640.89246988  -179514.39749573
  entropy T*S    EENTRO =        -0.11582517
  eigenvalues    EBANDS =    -17788.96286641
  atomic energy  EATOM  =    224013.29143063
  Solvation  Ediel_sol  =         0.00000000
  ---------------------------------------------------
  free energy    TOTEN  =      -368.34571506 eV

  energy without entropy =     -368.22988990  energy(sigma->0) =     -368.30710667


--------------------------------------------------------------------------------------------------------




----------------------------------------- Iteration    1(   8)  ---------------------------------------


    POTLOK:  cpu time    1.1818: real time    1.1815
    SETDIJ:  cpu time    0.2090: real time    0.2084
     EDDAV:  cpu time  596.5003: real time  596.0188
       DOS:  cpu time    0.0210: real time    0.0215
    CHARGE:  cpu time   25.0762: real time   25.0558
    MIXING:  cpu time    0.0450: real time    0.0439
    --------------------------------------------
      LOOP:  cpu time  623.0333: real time  622.5413

 eigenvalue-minimisations  : 27192
 total energy-change (2. order) :-0.2589142E-01  (-0.9414324E-01)
 number of electron    1023.9998048 magnetization      39.8612158
 augmentation part      605.7831255 magnetization      33.2975403

 Broyden mixing:
  rms(total) = 0.26752E+00    rms(broyden)= 0.26734E+00
  rms(prec ) = 0.34492E+00
  weight for this iteration     100.00

 eigenvalues of (default mixing * dielectric matrix)
  average eigenvalue GAMMA=   1.1027
  0.5968  0.9977  1.7137

 Free energy of the ion-electron system (eV)
  ---------------------------------------------------
  alpha Z        PSCENC =      9846.09864404
  Ewald energy   TEWEN  =   -153431.04596335
  -Hartree energ DENC   =    -59624.81250864
  -exchange      EXHF   =         0.00000000
  -V(xc)+E(xc)   XCENC  =      5632.37749697
  PAW double counting   =    171403.26037076  -180381.37290572
  entropy T*S    EENTRO =        -0.10782231
  eigenvalues    EBANDS =    -17826.06034886
  atomic energy  EATOM  =    224013.29143063
  Solvation  Ediel_sol  =         0.00000000
  ---------------------------------------------------
  free energy    TOTEN  =      -368.37160648 eV

  energy without entropy =     -368.26378417  energy(sigma->0) =     -368.33566571


--------------------------------------------------------------------------------------------------------




----------------------------------------- Iteration    1(   9)  ---------------------------------------


    POTLOK:  cpu time    1.1798: real time    1.1792
    SETDIJ:  cpu time    0.2100: real time    0.2087
     EDDAV:  cpu time  608.5135: real time  608.0218
       DOS:  cpu time    0.0310: real time    0.0309
    CHARGE:  cpu time   25.3241: real time   25.3038
    MIXING:  cpu time    0.0460: real time    0.0457
    --------------------------------------------
      LOOP:  cpu time  635.3044: real time  634.8013

 eigenvalue-minimisations  : 27944
 total energy-change (2. order) : 0.4316272E-01  (-0.1887950E-01)
 number of electron    1023.9998046 magnetization      39.9852195
 augmentation part      606.3353358 magnetization      34.3596597

 Broyden mixing:
  rms(total) = 0.10197E+00    rms(broyden)= 0.10194E+00
  rms(prec ) = 0.10550E+00
  weight for this iteration     100.00

 eigenvalues of (default mixing * dielectric matrix)
  average eigenvalue GAMMA=   1.1292
  2.1228  1.1660  0.6066  0.6213

 Free energy of the ion-electron system (eV)
  ---------------------------------------------------
  alpha Z        PSCENC =      9846.09864404
  Ewald energy   TEWEN  =   -153431.04596335
  -Hartree energ DENC   =    -59508.17940168
  -exchange      EXHF   =         0.00000000
  -V(xc)+E(xc)   XCENC  =      5628.60439065
  PAW double counting   =    171911.23086754  -180948.89670709
  entropy T*S    EENTRO =        -0.10972322
  eigenvalues    EBANDS =    -17879.32198128
  atomic energy  EATOM  =    224013.29143063
  Solvation  Ediel_sol  =         0.00000000
  ---------------------------------------------------
  free energy    TOTEN  =      -368.32844376 eV

  energy without entropy =     -368.21872055  energy(sigma->0) =     -368.29186936


--------------------------------------------------------------------------------------------------------




----------------------------------------- Iteration    1(  10)  ---------------------------------------


    POTLOK:  cpu time    1.1778: real time    1.1773
    SETDIJ:  cpu time    0.2080: real time    0.2077
     EDDAV:  cpu time  627.3586: real time  626.8509
       DOS:  cpu time    0.0310: real time    0.0310
    CHARGE:  cpu time   25.2892: real time   25.2684
    MIXING:  cpu time    0.0450: real time    0.0450
    --------------------------------------------
      LOOP:  cpu time  654.1106: real time  653.5812

 eigenvalue-minimisations  : 29128
 total energy-change (2. order) :-0.1768299E-02  (-0.1055187E-02)
 number of electron    1023.9998046 magnetization      40.5076183
 augmentation part      606.3528629 magnetization      34.9197062

 Broyden mixing:
  rms(total) = 0.29886E-01    rms(broyden)= 0.29820E-01
  rms(prec ) = 0.31128E-01
  weight for this iteration     100.00

 eigenvalues of (default mixing * dielectric matrix)
  average eigenvalue GAMMA=   1.2358
  2.2167  1.4453  1.2952  0.6183  0.6035

 Free energy of the ion-electron system (eV)
  ---------------------------------------------------
  alpha Z        PSCENC =      9846.09864404
  Ewald energy   TEWEN  =   -153431.04596335
  -Hartree energ DENC   =    -59495.52552182
  -exchange      EXHF   =         0.00000000
  -V(xc)+E(xc)   XCENC  =      5628.29879763
  PAW double counting   =    172029.44264869  -181075.14908419
  entropy T*S    EENTRO =        -0.10940661
  eigenvalues    EBANDS =    -17883.63175708
  atomic energy  EATOM  =    224013.29143063
  Solvation  Ediel_sol  =         0.00000000
  ---------------------------------------------------
  free energy    TOTEN  =      -368.33021206 eV

  energy without entropy =     -368.22080545  energy(sigma->0) =     -368.29374319


--------------------------------------------------------------------------------------------------------




----------------------------------------- Iteration    1(  11)  ---------------------------------------


    POTLOK:  cpu time    1.1788: real time    1.1782
    SETDIJ:  cpu time    0.2050: real time    0.2048
     EDDAV:  cpu time  587.9216: real time  587.4463
       DOS:  cpu time    0.0310: real time    0.0303
    CHARGE:  cpu time   25.2032: real time   25.1832
    MIXING:  cpu time    0.0560: real time    0.0558
    --------------------------------------------
      LOOP:  cpu time  614.5966: real time  614.0993

 eigenvalue-minimisations  : 26984
 total energy-change (2. order) :-0.3073878E-02  (-0.4319321E-03)
 number of electron    1023.9998046 magnetization      40.5640927
 augmentation part      606.2953438 magnetization      34.8469916

 Broyden mixing:
  rms(total) = 0.10705E-01    rms(broyden)= 0.10634E-01
  rms(prec ) = 0.13470E-01
  weight for this iteration     100.00

 eigenvalues of (default mixing * dielectric matrix)
  average eigenvalue GAMMA=   1.1912
  2.3277  1.6175  1.2639  0.7072  0.6381  0.5930

 Free energy of the ion-electron system (eV)
  ---------------------------------------------------
  alpha Z        PSCENC =      9846.09864404
  Ewald energy   TEWEN  =   -153431.04596335
  -Hartree energ DENC   =    -59496.03123539
  -exchange      EXHF   =         0.00000000
  -V(xc)+E(xc)   XCENC  =      5628.31647746
  PAW double counting   =    172112.60854268  -181160.10825542
  entropy T*S    EENTRO =        -0.10933726
  eigenvalues    EBANDS =    -17881.35358934
  atomic energy  EATOM  =    224013.29143063
  Solvation  Ediel_sol  =         0.00000000
  ---------------------------------------------------
  free energy    TOTEN  =      -368.33328594 eV

  energy without entropy =     -368.22394868  energy(sigma->0) =     -368.29684019


--------------------------------------------------------------------------------------------------------




----------------------------------------- Iteration    1(  12)  ---------------------------------------


    POTLOK:  cpu time    1.1798: real time    1.1800
    SETDIJ:  cpu time    0.2000: real time    0.1987
     EDDAV:  cpu time  604.1012: real time  603.6134
       DOS:  cpu time    0.0400: real time    0.0404
    CHARGE:  cpu time   25.2412: real time   25.2216
    MIXING:  cpu time    0.0550: real time    0.0546
    --------------------------------------------
      LOOP:  cpu time  630.8201: real time  630.3102

 eigenvalue-minimisations  : 27944
 total energy-change (2. order) :-0.1209966E-03  (-0.4830518E-04)
 number of electron    1023.9998046 magnetization      40.5741707
 augmentation part      606.3318648 magnetization      34.8422933

 Broyden mixing:
  rms(total) = 0.24904E-02    rms(broyden)= 0.24708E-02
  rms(prec ) = 0.26605E-02
  weight for this iteration     100.00

 eigenvalues of (default mixing * dielectric matrix)
  average eigenvalue GAMMA=   1.2188
  2.4789  1.7425  1.3013  1.0645  0.5954  0.6284  0.7206

 Free energy of the ion-electron system (eV)
  ---------------------------------------------------
  alpha Z        PSCENC =      9846.09864404
  Ewald energy   TEWEN  =   -153431.04596335
  -Hartree energ DENC   =    -59492.42250318
  -exchange      EXHF   =         0.00000000
  -V(xc)+E(xc)   XCENC  =      5628.18654566
  PAW double counting   =    172145.30047499  -181193.62349778
  entropy T*S    EENTRO =        -0.10993570
  eigenvalues    EBANDS =    -17884.00860225
  atomic energy  EATOM  =    224013.29143063
  Solvation  Ediel_sol  =         0.00000000
  ---------------------------------------------------
  free energy    TOTEN  =      -368.33340694 eV

  energy without entropy =     -368.22347124  energy(sigma->0) =     -368.29676170


--------------------------------------------------------------------------------------------------------




----------------------------------------- Iteration    1(  13)  ---------------------------------------


    POTLOK:  cpu time    1.1578: real time    1.1577
    SETDIJ:  cpu time    0.2090: real time    0.2086
     EDDAV:  cpu time  534.1298: real time  533.6974
       DOS:  cpu time    0.0110: real time    0.0103
    CHARGE:  cpu time   25.1212: real time   25.1010
    MIXING:  cpu time    0.0580: real time    0.0573
    --------------------------------------------
      LOOP:  cpu time  560.6878: real time  560.2333

 eigenvalue-minimisations  : 23800
 total energy-change (2. order) :-0.1769478E-04  (-0.2756867E-05)
 number of electron    1023.9998046 magnetization      40.5738766
 augmentation part      606.3364290 magnetization      34.8381094

 Broyden mixing:
  rms(total) = 0.15687E-02    rms(broyden)= 0.15682E-02
  rms(prec ) = 0.21091E-02
  weight for this iteration     100.00

 eigenvalues of (default mixing * dielectric matrix)
  average eigenvalue GAMMA=   1.2342
  2.5124  1.8716  1.3523  1.3523  0.5981  0.6230  0.7819  0.7819

 Free energy of the ion-electron system (eV)
  ---------------------------------------------------
  alpha Z        PSCENC =      9846.09864404
  Ewald energy   TEWEN  =   -153431.04596335
  -Hartree energ DENC   =    -59492.11254053
  -exchange      EXHF   =         0.00000000
  -V(xc)+E(xc)   XCENC  =      5628.17472684
  PAW double counting   =    172157.34471632  -181205.59435012
  entropy T*S    EENTRO =        -0.10996064
  eigenvalues    EBANDS =    -17884.38012782
  atomic energy  EATOM  =    224013.29143063
  Solvation  Ediel_sol  =         0.00000000
  ---------------------------------------------------
  free energy    TOTEN  =      -368.33342463 eV

  energy without entropy =     -368.22346399  energy(sigma->0) =     -368.29677108


--------------------------------------------------------------------------------------------------------




----------------------------------------- Iteration    1(  14)  ---------------------------------------


    POTLOK:  cpu time    1.1728: real time    1.1726
    SETDIJ:  cpu time    0.2030: real time    0.2026
     EDDAV:  cpu time  493.3870: real time  492.9863
       DOS:  cpu time    0.0290: real time    0.0299
    CHARGE:  cpu time   25.1412: real time   25.1211
    MIXING:  cpu time    0.0590: real time    0.0578
    --------------------------------------------
      LOOP:  cpu time  519.9919: real time  519.5711

 eigenvalue-minimisations  : 21360
 total energy-change (2. order) : 0.2249412E-04  (-0.5629501E-06)
 number of electron    1023.9998046 magnetization      40.5701032
 augmentation part      606.3321817 magnetization      34.8352370

 Broyden mixing:
  rms(total) = 0.58036E-03    rms(broyden)= 0.57973E-03
  rms(prec ) = 0.65757E-03
  weight for this iteration     100.00

 eigenvalues of (default mixing * dielectric matrix)
  average eigenvalue GAMMA=   1.2762
  2.5475  2.3663  1.6901  1.2831  0.9144  0.8274  0.5969  0.6252  0.6347

 Free energy of the ion-electron system (eV)
  ---------------------------------------------------
  alpha Z        PSCENC =      9846.09864404
  Ewald energy   TEWEN  =   -153431.04596335
  -Hartree energ DENC   =    -59492.75199488
  -exchange      EXHF   =         0.00000000
  -V(xc)+E(xc)   XCENC  =      5628.19862665
  PAW double counting   =    172163.40283195  -181211.31897438
  entropy T*S    EENTRO =        -0.10991684
  eigenvalues    EBANDS =    -17884.09808594
  atomic energy  EATOM  =    224013.29143063
  Solvation  Ediel_sol  =         0.00000000
  ---------------------------------------------------
  free energy    TOTEN  =      -368.33340214 eV

  energy without entropy =     -368.22348529  energy(sigma->0) =     -368.29676319


--------------------------------------------------------------------------------------------------------




----------------------------------------- Iteration    1(  15)  ---------------------------------------


    POTLOK:  cpu time    1.1708: real time    1.1694
    SETDIJ:  cpu time    0.2080: real time    0.2078
     EDDAV:  cpu time  365.3475: real time  365.0507
       DOS:  cpu time    0.0410: real time    0.0417
    CHARGE:  cpu time   25.0722: real time   25.0520
    MIXING:  cpu time    0.0610: real time    0.0598
    --------------------------------------------
      LOOP:  cpu time  391.9004: real time  391.5821

 eigenvalue-minimisations  : 13760
 total energy-change (2. order) : 0.8179311E-05  (-0.5138922E-07)
 number of electron    1023.9998046 magnetization      40.5696036
 augmentation part      606.3310073 magnetization      34.8350571

 Broyden mixing:
  rms(total) = 0.88057E-04    rms(broyden)= 0.86111E-04
  rms(prec ) = 0.10554E-03
  weight for this iteration     100.00

 eigenvalues of (default mixing * dielectric matrix)
  average eigenvalue GAMMA=   1.2619
  2.6307  2.4779  1.7301  1.2594  1.0591  0.8409  0.7592  0.5965  0.6289  0.6362

 Free energy of the ion-electron system (eV)
  ---------------------------------------------------
  alpha Z        PSCENC =      9846.09864404
  Ewald energy   TEWEN  =   -153431.04596335
  -Hartree energ DENC   =    -59492.97899856
  -exchange      EXHF   =         0.00000000
  -V(xc)+E(xc)   XCENC  =      5628.20637782
  PAW double counting   =    172165.15683516  -181212.93865940
  entropy T*S    EENTRO =        -0.10990092
  eigenvalues    EBANDS =    -17884.01315939
  atomic energy  EATOM  =    224013.29143063
  Solvation  Ediel_sol  =         0.00000000
  ---------------------------------------------------
  free energy    TOTEN  =      -368.33339396 eV

  energy without entropy =     -368.22349304  energy(sigma->0) =     -368.29676032


--------------------------------------------------------------------------------------------------------




----------------------------------------- Iteration    1(  16)  ---------------------------------------


    POTLOK:  cpu time    1.1608: real time    1.1605
    SETDIJ:  cpu time    0.2090: real time    0.2085
     EDDAV:  cpu time  368.8059: real time  368.5073
       DOS:  cpu time    0.0410: real time    0.0408
    --------------------------------------------
      LOOP:  cpu time  370.2167: real time  369.9178

 eigenvalue-minimisations  : 13600
 total energy-change (2. order) :-0.3215100E-06  (-0.1193299E-07)
 number of electron    1023.9998046 magnetization      40.5696036
 augmentation part      606.3310073 magnetization      34.8350571

 Free energy of the ion-electron system (eV)
  ---------------------------------------------------
  alpha Z        PSCENC =      9846.09864404
  Ewald energy   TEWEN  =   -153431.04596335
  -Hartree energ DENC   =    -59492.96559441
  -exchange      EXHF   =         0.00000000
  -V(xc)+E(xc)   XCENC  =      5628.20586965
  PAW double counting   =    172165.06679712  -181212.84841878
  entropy T*S    EENTRO =        -0.10989933
  eigenvalues    EBANDS =    -17884.02625984
  atomic energy  EATOM  =    224013.29143063
  Solvation  Ediel_sol  =         0.00000000
  ---------------------------------------------------
  free energy    TOTEN  =      -368.33339428 eV

  energy without entropy =     -368.22349495  energy(sigma->0) =     -368.29676117


--------------------------------------------------------------------------------------------------------




 average (electrostatic) potential at core
  the test charge radii are     0.8614
  (the norm of the test charge is              1.0000)
       1 -79.4543       2 -79.4543       3 -79.4543       4 -79.4543       5 -79.4543
       6 -79.4543       7 -79.4543       8 -79.4543       9 -79.4543      10 -79.4543
      11 -79.4543      12 -79.4543      13 -79.4543      14 -79.4543      15 -79.4543
      16 -79.4543      17 -79.4543      18 -79.4543      19 -79.4543      20 -79.4543
      21 -79.4543      22 -79.4543      23 -79.4543      24 -79.4543      25 -79.4543
      26 -79.4543      27 -79.4543      28 -79.4543      29 -79.4543      30 -79.4543
      31 -79.4543      32 -79.4543      33 -79.4543      34 -79.4543      35 -79.4543
      36 -79.4543      37 -79.4543      38 -79.4543      39 -79.4543      40 -79.4543
      41 -79.4543      42 -79.4543      43 -79.4543      44 -79.4543      45 -79.4543
      46 -79.4543      47 -79.4543      48 -79.4543      49 -79.4543      50 -79.4543
      51 -79.4543      52 -79.4543      53 -79.4543      54 -79.4543      55 -79.4543
      56 -79.4543      57 -79.4543      58 -79.4543      59 -79.4543      60 -79.4543
      61 -79.4543      62 -79.4543      63 -79.4543      64 -79.4543
 
 
 
 E-fermi :   7.7972     XC(G=0): -13.7385     alpha+bet :-14.7865


 spin component 1

 k-point     1 :       0.0000    0.0000    0.0000
  band No.  band energies     occupation 
      1     -56.2383      1.00000
      2     -56.2382      1.00000
      3     -56.2382      1.00000
      4     -56.2382      1.00000
      5     -56.2355      1.00000
      6     -56.2355      1.00000
      7     -56.2355      1.00000
      8     -56.2010      1.00000
      9     -56.2010      1.00000
     10     -56.2010      1.00000
     11     -56.2010      1.00000
     12     -56.2010      1.00000
     13     -56.2010      1.00000
     14     -56.2010      1.00000
     15     -56.2010      1.00000
     16     -56.2010      1.00000
     17     -56.2010      1.00000
     18     -56.2010      1.00000
     19     -56.2010      1.00000
     20     -56.2010      1.00000
     21     -56.2010      1.00000
     22     -56.2010      1.00000
     23     -56.2010      1.00000
     24     -56.2010      1.00000
     25     -56.2010      1.00000
     26     -56.2010      1.00000
     27     -56.2010      1.00000
     28     -56.2010      1.00000
     29     -56.2010      1.00000
     30     -56.2010      1.00000
     31     -56.2010      1.00000
     32     -56.1708      1.00000
     33     -56.1708      1.00000
     34     -56.1708      1.00000
     35     -56.1708      1.00000
     36     -56.1708      1.00000
     37     -56.1708      1.00000
     38     -56.1708      1.00000
     39     -56.1708      1.00000
     40     -56.1708      1.00000
     41     -56.1708      1.00000
     42     -56.1708      1.00000
     43     -56.1708      1.00000
     44     -56.1652      1.00000
     45     -56.1652      1.00000
     46     -56.1652      1.00000
     47     -56.1652      1.00000
     48     -56.1652      1.00000
     49     -56.1652      1.00000
     50     -56.1652      1.00000
     51     -56.1652      1.00000
     52     -56.1652      1.00000
     53     -56.1652      1.00000
     54     -56.1652      1.00000
     55     -56.1652      1.00000
     56     -56.1337      1.00000
     57     -56.1337      1.00000
     58     -56.1337      1.00000
     59     -56.1337      1.00000
     60     -56.1337      1.00000
     61     -56.1337      1.00000
     62     -56.1229      1.00000
     63     -56.1229      1.00000
     64     -56.1229      1.00000
     65     -56.1229      1.00000
     66     -56.1229      1.00000
     67     -56.1229      1.00000
     68     -56.1229      1.00000
     69     -56.1229      1.00000
     70     -56.1177      1.00000
     71     -56.1177      1.00000
     72     -56.1177      1.00000
     73     -56.1177      1.00000
     74     -56.1177      1.00000
     75     -56.1177      1.00000
     76     -56.1177      1.00000
     77     -56.1177      1.00000
     78     -56.1177      1.00000
     79     -56.1177      1.00000
     80     -56.1177      1.00000
     81     -56.1177      1.00000
     82     -56.1177      1.00000
     83     -56.1177      1.00000
     84     -56.1177      1.00000
     85     -56.1177      1.00000
     86     -56.1177      1.00000
     87     -56.1177      1.00000
     88     -56.1177      1.00000
     89     -56.1177      1.00000
     90     -56.1177      1.00000
     91     -56.1177      1.00000
     92     -56.1177      1.00000
     93     -56.1177      1.00000
     94     -56.1155      1.00000
     95     -56.1155      1.00000
     96     -56.1155      1.00000
     97     -56.1155      1.00000
     98     -56.1155      1.00000
     99     -56.1155      1.00000
    100     -56.1155      1.00000
    101     -56.1155      1.00000
    102     -56.1155      1.00000
    103     -56.1155      1.00000
    104     -56.1155      1.00000
    105     -56.1155      1.00000
    106     -56.1150      1.00000
    107     -56.1150      1.00000
    108     -56.1150      1.00000
    109     -56.1150      1.00000
    110     -56.1150      1.00000
    111     -56.1150      1.00000
    112     -56.1072      1.00000
    113     -56.1072      1.00000
    114     -56.1072      1.00000
    115     -56.1072      1.00000
    116     -56.1072      1.00000
    117     -56.1072      1.00000
    118     -56.0842      1.00000
    119     -56.0842      1.00000
[...]
      1.762500  3.525000  1.762500    -0.044269   -0.013735    0.116089  
      3.525000  5.287500  1.762500    -0.044269   -0.013735    0.116089  
      5.287500  7.050000  1.762500    -0.044269   -0.013735    0.116089  
      1.762500  1.762500  3.525000    -0.044269   -0.013735    0.116089  
      3.525000  3.525000  3.525000    -0.044269   -0.013735    0.116089  
      5.287500  5.287500  3.525000    -0.044269   -0.013735    0.116089  
      7.050000  7.050000  3.525000    -0.044269   -0.013735    0.116089  
      3.525000  1.762500  5.287500    -0.044269   -0.013735    0.116089  
      5.287500  3.525000  5.287500    -0.044269   -0.013735    0.116089  
      7.050000  5.287500  5.287500    -0.044269   -0.013735    0.116089  
      8.812500  7.050000  5.287500    -0.044269   -0.013735    0.116089  
      5.287500  1.762500  7.050000    -0.044269   -0.013735    0.116089  
      7.050000  3.525000  7.050000    -0.044269   -0.013735    0.116089  
      8.812500  5.287500  7.050000    -0.044269   -0.013735    0.116089  
     10.575000  7.050000  7.050000    -0.044269   -0.013735    0.116089  
      0.000000  3.525000  3.525000    -0.044269   -0.013735    0.116089  
      1.762500  5.287500  3.525000    -0.044269   -0.013735    0.116089  
      3.525000  7.050000  3.525000    -0.044269   -0.013735    0.116089  
      5.287500  8.812500  3.525000    -0.044269   -0.013735    0.116089  
      1.762500  3.525000  5.287500    -0.044269   -0.013735    0.116089  
      3.525000  5.287500  5.287500    -0.044269   -0.013735    0.116089  
      5.287500  7.050000  5.287500    -0.044269   -0.013735    0.116089  
      7.050000  8.812500  5.287500    -0.044269   -0.013735    0.116089  
      3.525000  3.525000  7.050000    -0.044269   -0.013735    0.116089  
      5.287500  5.287500  7.050000    -0.044269   -0.013735    0.116089  
      7.050000  7.050000  7.050000    -0.044269   -0.013735    0.116089  
      8.812500  8.812500  7.050000    -0.044269   -0.013735    0.116089  
      5.287500  3.525000  8.812500    -0.044269   -0.013735    0.116089  
      7.050000  5.287500  8.812500    -0.044269   -0.013735    0.116089  
      8.812500  7.050000  8.812500    -0.044269   -0.013735    0.116089  
     10.575000  8.812500  8.812500    -0.044269   -0.013735    0.116089  
      0.000000  5.287500  5.287500    -0.044269   -0.013735    0.116089  
      1.762500  7.050000  5.287500    -0.044269   -0.013735    0.116089  
      3.525000  8.812500  5.287500    -0.044269   -0.013735    0.116089  
      5.287500 10.575000  5.287500    -0.044269   -0.013735    0.116089  
      1.762500  5.287500  7.050000    -0.044269   -0.013735    0.116089  
      3.525000  7.050000  7.050000    -0.044269   -0.013735    0.116089  
      5.287500  8.812500  7.050000    -0.044269   -0.013735    0.116089  
      7.050000 10.575000  7.050000    -0.044269   -0.013735    0.116089  
      3.525000  5.287500  8.812500    -0.044269   -0.013735    0.116089  
      5.287500  7.050000  8.812500    -0.044269   -0.013735    0.116089  
      7.050000  8.812500  8.812500    -0.044269   -0.013735    0.116089  
      8.812500 10.575000  8.812500    -0.044269   -0.013735    0.116089  
      5.287500  5.287500 10.575000    -0.044269   -0.013735    0.116089  
      7.050000  7.050000 10.575000    -0.044269   -0.013735    0.116089  
      8.812500  8.812500 10.575000    -0.044269   -0.013735    0.116089  
     10.575000 10.575000 10.575000    -0.044269   -0.013735    0.116089  
 
 192 f  =    0.000001 THz     0.000007 2PiTHz    0.000035 cm-1     0.000004 meV
             X         Y         Z           dx          dy          dz
      0.000000  0.000000  0.000000     0.034582   -0.120117   -0.001024  
      1.762500  1.762500  0.000000     0.034582   -0.120117   -0.001024  
      3.525000  3.525000  0.000000     0.034582   -0.120117   -0.001024  
      5.287500  5.287500  0.000000     0.034582   -0.120117   -0.001024  
      1.762500  0.000000  1.762500     0.034582   -0.120117   -0.001024  
      3.525000  1.762500  1.762500     0.034582   -0.120117   -0.001024  
      5.287500  3.525000  1.762500     0.034582   -0.120117   -0.001024  
      7.050000  5.287500  1.762500     0.034582   -0.120117   -0.001024  
      3.525000  0.000000  3.525000     0.034582   -0.120117   -0.001024  
      5.287500  1.762500  3.525000     0.034582   -0.120117   -0.001024  
      7.050000  3.525000  3.525000     0.034582   -0.120117   -0.001024  
      8.812500  5.287500  3.525000     0.034582   -0.120117   -0.001024  
      5.287500  0.000000  5.287500     0.034582   -0.120117   -0.001024  
      7.050000  1.762500  5.287500     0.034582   -0.120117   -0.001024  
      8.812500  3.525000  5.287500     0.034582   -0.120117   -0.001024  
     10.575000  5.287500  5.287500     0.034582   -0.120117   -0.001024  
      0.000000  1.762500  1.762500     0.034582   -0.120117   -0.001024  
      1.762500  3.525000  1.762500     0.034582   -0.120117   -0.001024  
      3.525000  5.287500  1.762500     0.034582   -0.120117   -0.001024  
      5.287500  7.050000  1.762500     0.034582   -0.120117   -0.001024  
      1.762500  1.762500  3.525000     0.034582   -0.120117   -0.001024  
      3.525000  3.525000  3.525000     0.034582   -0.120117   -0.001024  
      5.287500  5.287500  3.525000     0.034582   -0.120117   -0.001024  
      7.050000  7.050000  3.525000     0.034582   -0.120117   -0.001024  
      3.525000  1.762500  5.287500     0.034582   -0.120117   -0.001024  
      5.287500  3.525000  5.287500     0.034582   -0.120117   -0.001024  
      7.050000  5.287500  5.287500     0.034582   -0.120117   -0.001024  
      8.812500  7.050000  5.287500     0.034582   -0.120117   -0.001024  
      5.287500  1.762500  7.050000     0.034582   -0.120117   -0.001024  
      7.050000  3.525000  7.050000     0.034582   -0.120117   -0.001024  
      8.812500  5.287500  7.050000     0.034582   -0.120117   -0.001024  
     10.575000  7.050000  7.050000     0.034582   -0.120117   -0.001024  
      0.000000  3.525000  3.525000     0.034582   -0.120117   -0.001024  
      1.762500  5.287500  3.525000     0.034582   -0.120117   -0.001024  
      3.525000  7.050000  3.525000     0.034582   -0.120117   -0.001024  
      5.287500  8.812500  3.525000     0.034582   -0.120117   -0.001024  
      1.762500  3.525000  5.287500     0.034582   -0.120117   -0.001024  
      3.525000  5.287500  5.287500     0.034582   -0.120117   -0.001024  
      5.287500  7.050000  5.287500     0.034582   -0.120117   -0.001024  
      7.050000  8.812500  5.287500     0.034582   -0.120117   -0.001024  
      3.525000  3.525000  7.050000     0.034582   -0.120117   -0.001024  
      5.287500  5.287500  7.050000     0.034582   -0.120117   -0.001024  
      7.050000  7.050000  7.050000     0.034582   -0.120117   -0.001024  
      8.812500  8.812500  7.050000     0.034582   -0.120117   -0.001024  
      5.287500  3.525000  8.812500     0.034582   -0.120117   -0.001024  
      7.050000  5.287500  8.812500     0.034582   -0.120117   -0.001024  
      8.812500  7.050000  8.812500     0.034582   -0.120117   -0.001024  
     10.575000  8.812500  8.812500     0.034582   -0.120117   -0.001024  
      0.000000  5.287500  5.287500     0.034582   -0.120117   -0.001024  
      1.762500  7.050000  5.287500     0.034582   -0.120117   -0.001024  
      3.525000  8.812500  5.287500     0.034582   -0.120117   -0.001024  
      5.287500 10.575000  5.287500     0.034582   -0.120117   -0.001024  
      1.762500  5.287500  7.050000     0.034582   -0.120117   -0.001024  
      3.525000  7.050000  7.050000     0.034582   -0.120117   -0.001024  
      5.287500  8.812500  7.050000     0.034582   -0.120117   -0.001024  
      7.050000 10.575000  7.050000     0.034582   -0.120117   -0.001024  
      3.525000  5.287500  8.812500     0.034582   -0.120117   -0.001024  
      5.287500  7.050000  8.812500     0.034582   -0.120117   -0.001024  
      7.050000  8.812500  8.812500     0.034582   -0.120117   -0.001024  
      8.812500 10.575000  8.812500     0.034582   -0.120117   -0.001024  
      5.287500  5.287500 10.575000     0.034582   -0.120117   -0.001024  
      7.050000  7.050000 10.575000     0.034582   -0.120117   -0.001024  
      8.812500  8.812500 10.575000     0.034582   -0.120117   -0.001024  
     10.575000 10.575000 10.575000     0.034582   -0.120117   -0.001024  
 

 ELASTIC MODULI CONTR FROM IONIC RELAXATION (kBar)
 Direction    XX          YY          ZZ          XY          YZ          ZX
 --------------------------------------------------------------------------------
 XX          -0.0000      0.0000      0.0000     -0.0000      0.0000     -0.0000
 YY           0.0000      0.0000     -0.0000      0.0000     -0.0000      0.0000
 ZZ           0.0000     -0.0000      0.0000     -0.0000     -0.0000      0.0000
 XY           0.0000      0.0000     -0.0000     -0.0000     -0.0000      0.0000
 YZ           0.0000     -0.0000     -0.0000     -0.0000      0.0000     -0.0000
 ZX          -0.0000      0.0000     -0.0000      0.0000      0.0000     -0.0000
 --------------------------------------------------------------------------------



--------------------------------------------------------------------------------------------------------


  LATTYP: Found a face centered cubic cell.
 ALAT       =    14.1000000000
  
  Lattice vectors:
  
 A1 = (   0.0000000000,   7.0500000000,   7.0500000000)
 A2 = (   7.0500000000,   0.0000000000,   7.0500000000)
 A3 = (   7.0500000000,   7.0500000000,   0.0000000000)


Analysis of symmetry for initial positions (statically):
=====================================================================
 Subroutine PRICEL returns following result:
 
  LATTYP: Found a face centered cubic cell.
 ALAT       =     3.5250000000
  
  Lattice vectors:
  
 A1 = (   0.0000000000,   1.7625000000,   1.7625000000)
 A2 = (   1.7625000000,   0.0000000000,   1.7625000000)
 A3 = (   1.7625000000,   1.7625000000,   0.0000000000)
 
  64 primitive cells build up your supercell.
 

 Routine SETGRP: Setting up the symmetry group for a 
 face centered cubic supercell.


 Subroutine GETGRP returns: Found 48 space group operations
 (whereof 48 operations were pure point group operations)
 out of a pool of 48 trial point group operations.


The static configuration has the point symmetry O_h .


Analysis of symmetry for dynamics (positions and initial velocities):
=====================================================================
 Subroutine PRICEL returns following result:
 
  LATTYP: Found a face centered cubic cell.
 ALAT       =     3.5250000000
  
  Lattice vectors:
  
 A1 = (   0.0000000000,   1.7625000000,   1.7625000000)
 A2 = (   1.7625000000,   0.0000000000,   1.7625000000)
 A3 = (   1.7625000000,   1.7625000000,   0.0000000000)
 
  64 primitive cells build up your supercell.
 

 Routine SETGRP: Setting up the symmetry group for a 
 face centered cubic supercell.


 Subroutine GETGRP returns: Found 48 space group operations
 (whereof 48 operations were pure point group operations)
 out of a pool of 48 trial point group operations.


The dynamic configuration has the point symmetry O_h .


Analysis of structural, dynamic, and magnetic symmetry:
=====================================================================
 Subroutine PRICEL returns following result:
 
  LATTYP: Found a face centered cubic cell.
 ALAT       =     3.5250000000
  
  Lattice vectors:
  
 A1 = (   0.0000000000,   1.7625000000,   1.7625000000)
 A2 = (   1.7625000000,   0.0000000000,   1.7625000000)
 A3 = (   1.7625000000,   1.7625000000,   0.0000000000)
 
  64 primitive cells build up your supercell.
 

 Routine SETGRP: Setting up the symmetry group for a 
 face centered cubic supercell.


 Subroutine GETGRP returns: Found 48 space group operations
 (whereof 48 operations were pure point group operations)
 out of a pool of 48 trial point group operations.


The magnetic configuration has the point symmetry O_h .


 Subroutine INISYM returns: Found 48 space group operations
 (whereof 48 operations are pure point group operations),
 and found    64 'primitive' translations

 
 KPOINTS: Zr 15x15x15                             

Automatic generation of k-mesh.
Space group operators:
 irot       det(A)        alpha          n_x          n_y          n_z        tau_x        tau_y        tau_z
    1     1.000000     0.000000     1.000000     0.000000     0.000000     0.000000     0.000000     0.000000
    2    -1.000000     0.000000     1.000000     0.000000     0.000000     0.000000     0.000000     0.000000
    3     1.000000   120.000000    -0.577350    -0.577350    -0.577350     0.000000     0.000000     0.000000
    4    -1.000000   120.000000    -0.577350    -0.577350    -0.577350     0.000000     0.000000     0.000000
    5     1.000000   120.000000     0.577350     0.577350     0.577350     0.000000     0.000000     0.000000
    6    -1.000000   120.000000     0.577350     0.577350     0.577350     0.000000     0.000000     0.000000
    7     1.000000    90.000000     0.000000     0.000000    -1.000000     0.000000     0.000000     0.000000
    8    -1.000000    90.000000     0.000000     0.000000    -1.000000     0.000000     0.000000     0.000000
    9     1.000000   180.000000     0.000000     0.707107     0.707107     0.000000     0.000000     0.000000
   10    -1.000000   180.000000     0.000000     0.707107     0.707107     0.000000     0.000000     0.000000
   11     1.000000    90.000000     0.000000     1.000000     0.000000     0.000000     0.000000     0.000000
   12    -1.000000    90.000000     0.000000     1.000000     0.000000     0.000000     0.000000     0.000000
   13     1.000000   180.000000     0.000000     0.000000     1.000000     0.000000     0.000000     0.000000
   14    -1.000000   180.000000     0.000000     0.000000     1.000000     0.000000     0.000000     0.000000
   15     1.000000   120.000000    -0.577350     0.577350     0.577350     0.000000     0.000000     0.000000
   16    -1.000000   120.000000    -0.577350     0.577350     0.577350     0.000000     0.000000     0.000000
   17     1.000000   120.000000    -0.577350     0.577350    -0.577350     0.000000     0.000000     0.000000
   18    -1.000000   120.000000    -0.577350     0.577350    -0.577350     0.000000     0.000000     0.000000
   19     1.000000    90.000000     0.000000     0.000000     1.000000     0.000000     0.000000     0.000000
   20    -1.000000    90.000000     0.000000     0.000000     1.000000     0.000000     0.000000     0.000000
   21     1.000000    90.000000    -1.000000     0.000000     0.000000     0.000000     0.000000     0.000000
   22    -1.000000    90.000000    -1.000000     0.000000     0.000000     0.000000     0.000000     0.000000
   23     1.000000   180.000000     0.707107     0.000000     0.707107     0.000000     0.000000     0.000000
   24    -1.000000   180.000000     0.707107     0.000000     0.707107     0.000000     0.000000     0.000000
   25     1.000000   120.000000     0.577350    -0.577350     0.577350     0.000000     0.000000     0.000000
   26    -1.000000   120.000000     0.577350    -0.577350     0.577350     0.000000     0.000000     0.000000
   27     1.000000   120.000000    -0.577350    -0.577350     0.577350     0.000000     0.000000     0.000000
   28    -1.000000   120.000000    -0.577350    -0.577350     0.577350     0.000000     0.000000     0.000000
   29     1.000000   180.000000     1.000000     0.000000     0.000000     0.000000     0.000000     0.000000
   30    -1.000000   180.000000     1.000000     0.000000     0.000000     0.000000     0.000000     0.000000
   31     1.000000    90.000000     0.000000    -1.000000     0.000000     0.000000     0.000000     0.000000
   32    -1.000000    90.000000     0.000000    -1.000000     0.000000     0.000000     0.000000     0.000000
   33     1.000000   180.000000     0.707107     0.707107     0.000000     0.000000     0.000000     0.000000
   34    -1.000000   180.000000     0.707107     0.707107     0.000000     0.000000     0.000000     0.000000
   35     1.000000    90.000000     1.000000     0.000000     0.000000     0.000000     0.000000     0.000000
   36    -1.000000    90.000000     1.000000     0.000000     0.000000     0.000000     0.000000     0.000000
   37     1.000000   120.000000     0.577350    -0.577350    -0.577350     0.000000     0.000000     0.000000
   38    -1.000000   120.000000     0.577350    -0.577350    -0.577350     0.000000     0.000000     0.000000
   39     1.000000   180.000000     0.000000     1.000000     0.000000     0.000000     0.000000     0.000000
   40    -1.000000   180.000000     0.000000     1.000000     0.000000     0.000000     0.000000     0.000000
   41     1.000000   120.000000     0.577350     0.577350    -0.577350     0.000000     0.000000     0.000000
   42    -1.000000   120.000000     0.577350     0.577350    -0.577350     0.000000     0.000000     0.000000
   43     1.000000   180.000000     0.000000    -0.707107     0.707107     0.000000     0.000000     0.000000
   44    -1.000000   180.000000     0.000000    -0.707107     0.707107     0.000000     0.000000     0.000000
   45     1.000000   180.000000     0.707107    -0.707107     0.000000     0.000000     0.000000     0.000000
   46    -1.000000   180.000000     0.707107    -0.707107     0.000000     0.000000     0.000000     0.000000
   47     1.000000   180.000000     0.707107     0.000000    -0.707107     0.000000     0.000000     0.000000
   48    -1.000000   180.000000     0.707107     0.000000    -0.707107     0.000000     0.000000     0.000000
 
 Subroutine IBZKPT returns following result:
 ===========================================
 
 Found     10 irreducible k-points:
 
 Following reciprocal coordinates:
            Coordinates               Weight
  0.000000  0.000000  0.000000      1.000000
  0.200000  0.000000  0.000000      8.000000
  0.400000  0.000000  0.000000      8.000000
  0.200000  0.200000  0.000000      6.000000
  0.400000  0.200000  0.000000     24.000000
 -0.400000  0.200000  0.000000     24.000000
 -0.200000  0.200000  0.000000     12.000000
  0.400000  0.400000  0.000000      6.000000
 -0.400000  0.400000  0.000000     12.000000
 -0.400000  0.400000  0.200000     24.000000
 
 Following cartesian coordinates:
            Coordinates               Weight
  0.000000  0.000000  0.000000      1.000000
 -0.014184  0.014184  0.014184      8.000000
 -0.028369  0.028369  0.028369      8.000000
  0.000000  0.000000  0.028369      6.000000
 -0.014184  0.014184  0.042553     24.000000
  0.042553 -0.042553 -0.014184     24.000000
  0.028369 -0.028369  0.000000     12.000000
  0.000000  0.000000  0.056738      6.000000
  0.056738 -0.056738  0.000000     12.000000
  0.070922 -0.042553 -0.014184     24.000000
 
 writing wavefunctions
     LOOP+:  cpu time19453.5706: real time19443.3416
    4ORBIT:  cpu time    0.0000: real time    0.0000

 total amount of memory used by VASP on root node   804150. kBytes
========================================================================

   base      :      30000. kBytes
   nonlr-proj:      51103. kBytes
   fftplans  :      18931. kBytes
   grid      :      59310. kBytes
   one-center:       1990. kBytes
   wavefun   :     642816. kBytes
 
  
  
 General timing and accounting informations for this job:
 ========================================================
  
                  Total CPU time used (sec):    46498.176
                            User time (sec):    43842.286
                          System time (sec):     2655.891
                         Elapsed time (sec):    46474.694
  
                   Maximum memory used (kb):     2483812.
                   Average memory used (kb):           0.
  
                          Minor page faults:       238681
                          Major page faults:            4
                 Voluntary context switches:         1952
