<?xml version="1.0" encoding="ISO-8859-1"?>
<modeling>
 <generator>
  <i name="program" type="string">vasp </i>
  <i name="version" type="string">5.4.1  </i>
  <i name="subversion" type="string">05Feb16 (build Oct 12 2016 17:31:35) complex                          parallel </i>
  <i name="platform" type="string">IFC91_ompi </i>
  <i name="date" type="string">2020 09 07 </i>
  <i name="time" type="string">22:41:47 </i>
 </generator>
 <incar>
  <i type="string" name="SYSTEM"> phonon of Zr bcc - omiga</i>
  <i type="string" name="PREC">a</i>
  <i type="int" name="ISPIN">     2</i>
  <i type="int" name="IBRION">     6</i>
  <i name="EDIFF">      0.00000100</i>
  <i type="int" name="NSW">     1</i>
  <v name="MAGMOM">      1.00000000      1.00000000      1.00000000      1.00000000      1.00000000      1.00000000      1.00000000      1.00000000      1.00000000      1.00000000      1.00000000      1.00000000      1.00000000      1.00000000      1.00000000      1.00000000      1.00000000      1.00000000      1.00000000      1.00000000
      1.00000000      1.00000000      1.00000000      1.00000000      1.00000000      1.00000000      1.00000000      1.00000000      1.00000000      1.00000000      1.00000000      1.00000000      1.00000000      1.00000000      1.00000000      1.00000000      1.00000000      1.00000000      1.00000000      1.00000000
      1.00000000      1.00000000      1.00000000      1.00000000      1.00000000      1.00000000      1.00000000      1.00000000      1.00000000      1.00000000      1.00000000      1.00000000      1.00000000      1.00000000      1.00000000      1.00000000      1.00000000      1.00000000      1.00000000      1.00000000
      1.00000000      1.00000000      1.00000000      1.00000000</v>
  <i type="string" name="LREAL">Auto</i>
  <i type="int" name="ISMEAR">     1</i>
  <i type="int" name="NWRITE">     0</i>
  <v type="int" name="KPOINT_BSE">    -1     0     0     0</v>
 </incar>
 <kpoints>
  <generation param="Gamma">
   <v type="int" name="divisions">       5        5        5 </v>
   <v name="usershift">      0.00000000       0.00000000       0.00000000 </v>
   <v name="genvec1">      0.20000000       0.00000000       0.00000000 </v>
   <v name="genvec2">      0.00000000       0.20000000       0.00000000 </v>
   <v name="genvec3">      0.00000000       0.00000000       0.20000000 </v>
   <v name="shift">      0.00000000       0.00000000       0.00000000 </v>
  </generation>
  <varray name="kpointlist" >
   <v>       0.00000000       0.00000000       0.00000000 </v>
   <v>       0.20000000       0.00000000       0.00000000 </v>
   <v>       0.40000000       0.00000000       0.00000000 </v>
   <v>       0.20000000       0.20000000       0.00000000 </v>
   <v>       0.40000000       0.20000000       0.00000000 </v>
   <v>      -0.40000000       0.20000000       0.00000000 </v>
   <v>      -0.20000000       0.20000000       0.00000000 </v>
   <v>       0.40000000       0.40000000       0.00000000 </v>
   <v>      -0.40000000       0.40000000       0.00000000 </v>
   <v>      -0.40000000       0.40000000       0.20000000 </v>
  </varray>
  <varray name="weights" >
   <v>       0.00800000 </v>
   <v>       0.06400000 </v>
   <v>       0.06400000 </v>
   <v>       0.04800000 </v>
   <v>       0.19200000 </v>
   <v>       0.19200000 </v>
   <v>       0.09600000 </v>
   <v>       0.04800000 </v>
   <v>       0.09600000 </v>
   <v>       0.19200000 </v>
  </varray>
 </kpoints>
 <parameters>
  <separator name="general" >
   <i type="string" name="SYSTEM">phonon of Zr bcc - omiga</i>
   <i type="logical" name="LCOMPAT"> F  </i>
  </separator>
  <separator name="electronic" >
   <i type="string" name="PREC">a</i>
   <i name="ENMAX">    367.94500000</i>
   <i name="ENAUG">    703.44300000</i>
   <i name="EDIFF">      0.00000100</i>
   <i type="int" name="IALGO">    38</i>
   <i type="int" name="IWAVPR">    11</i>
   <i type="int" name="NBANDS">   648</i>
   <i name="NELECT">   1024.00000000</i>
   <i type="int" name="TURBO">     0</i>
   <i type="int" name="IRESTART">     0</i>
   <i type="int" name="NREBOOT">     0</i>
   <i type="int" name="NMIN">     0</i>
   <i name="EREF">      0.00000000</i>
   <separator name="electronic smearing" >
    <i type="int" name="ISMEAR">     1</i>
    <i name="SIGMA">      0.20000000</i>
    <i name="KSPACING">      0.50000000</i>
    <i type="logical" name="KGAMMA"> T  </i>
   </separator>
   <separator name="electronic projectors" >
    <i type="logical" name="LREAL"> T  </i>
    <v name="ROPT">     -0.00025000</v>
    <i type="int" name="LMAXPAW">  -100</i>
    <i type="int" name="LMAXMIX">     2</i>
    <i type="logical" name="NLSPLINE"> F  </i>
   </separator>
   <separator name="electronic startup" >
    <i type="int" name="ISTART">     0</i>
    <i type="int" name="ICHARG">     2</i>
    <i type="int" name="INIWAV">     1</i>
   </separator>
   <separator name="electronic spin" >
    <i type="int" name="ISPIN">     2</i>
    <i type="logical" name="LNONCOLLINEAR"> F  </i>
    <v name="MAGMOM">      1.00000000      1.00000000      1.00000000      1.00000000      1.00000000      1.00000000      1.00000000      1.00000000      1.00000000      1.00000000      1.00000000      1.00000000      1.00000000      1.00000000      1.00000000      1.00000000      1.00000000      1.00000000      1.00000000      1.00000000
      1.00000000      1.00000000      1.00000000      1.00000000      1.00000000      1.00000000      1.00000000      1.00000000      1.00000000      1.00000000      1.00000000      1.00000000      1.00000000      1.00000000      1.00000000      1.00000000      1.00000000      1.00000000      1.00000000      1.00000000
      1.00000000      1.00000000      1.00000000      1.00000000      1.00000000      1.00000000      1.00000000      1.00000000      1.00000000      1.00000000      1.00000000      1.00000000      1.00000000      1.00000000      1.00000000      1.00000000      1.00000000      1.00000000      1.00000000      1.00000000
      1.00000000      1.00000000      1.00000000      1.00000000</v>
    <i name="NUPDOWN">     -1.00000000</i>
    <i type="logical" name="LSORBIT"> F  </i>
    <v name="SAXIS">      0.00000000      0.00000000      1.00000000</v>
    <i type="logical" name="LSPIRAL"> F  </i>
    <v name="QSPIRAL">      0.00000000      0.00000000      0.00000000</v>
    <i type="logical" name="LZEROZ"> F  </i>
   </separator>
   <separator name="electronic exchange-correlation" >
    <i type="logical" name="LASPH"> F  </i>
    <i type="logical" name="LMETAGGA"> F  </i>
   </separator>
   <separator name="electronic convergence" >
    <i type="int" name="NELM">    60</i>
    <i type="int" name="NELMDL">     0</i>
    <i type="int" name="NELMIN">     2</i>
    <i name="ENINI">    367.94500000</i>
    <separator name="electronic convergence detail" >
     <i type="logical" name="LDIAG"> T  </i>
     <i type="logical" name="LSUBROT"> F  </i>
     <i name="WEIMIN">      0.00100000</i>
     <i name="EBREAK">      0.00000000</i>
     <i name="DEPER">      0.30000000</i>
     <i type="int" name="NRMM">     4</i>
     <i name="TIME">      0.40000000</i>
    </separator>
   </separator>
   <separator name="electronic mixer" >
    <i name="AMIX">      0.40000000</i>
    <i name="BMIX">      1.00000000</i>
    <i name="AMIN">      0.10000000</i>
    <i name="AMIX_MAG">      1.60000000</i>
    <i name="BMIX_MAG">      1.00000000</i>
    <separator name="electronic mixer details" >
     <i type="int" name="IMIX">     4</i>
     <i type="logical" name="MIXFIRST"> F  </i>
     <i type="int" name="MAXMIX">   -45</i>
     <i name="WC">    100.00000000</i>
     <i type="int" name="INIMIX">     1</i>
     <i type="int" name="MIXPRE">     1</i>
     <i type="int" name="MREMOVE">     5</i>
    </separator>
   </separator>
   <separator name="electronic dipolcorrection" >
    <i type="logical" name="LDIPOL"> F  </i>
    <i type="logical" name="LMONO"> F  </i>
    <i type="int" name="IDIPOL">     0</i>
    <i name="EPSILON">      1.00000000</i>
    <v name="DIPOL">   -100.00000000   -100.00000000   -100.00000000</v>
    <i name="EFIELD">      0.00000000</i>
   </separator>
  </separator>
  <separator name="grids" >
   <i type="int" name="NGX">    64</i>
   <i type="int" name="NGY">    64</i>
   <i type="int" name="NGZ">    64</i>
   <i type="int" name="NGXF">   128</i>
   <i type="int" name="NGYF">   128</i>
   <i type="int" name="NGZF">   128</i>
   <i type="logical" name="ADDGRID"> F  </i>
  </separator>
  <separator name="ionic" >
   <i type="int" name="NSW">   805</i>
   <i type="int" name="IBRION">     6</i>
   <i type="int" name="ISIF">     2</i>
   <i name="PSTRESS">      0.00000000</i>
   <i name="EDIFFG">      0.00001000</i>
   <i type="int" name="NFREE">     2</i>
   <i name="POTIM">      0.50000000</i>
   <i name="SMASS">     -3.00000000</i>
   <i name="SCALEE">      1.00000000</i>
  </separator>
  <separator name="ionic md" >
   <i name="TEBEG">      0.00010000</i>
   <i name="TEEND">      0.00010000</i>
   <i type="int" name="NBLOCK">     1</i>
   <i type="int" name="KBLOCK">     1</i>
   <i type="int" name="NPACO">   256</i>
   <i name="APACO">     16.00000000</i>
  </separator>
  <separator name="symmetry" >
   <i type="int" name="ISYM">     2</i>
   <i name="SYMPREC">      0.00001000</i>
  </separator>
  <separator name="dos" >
   <i type="logical" name="LORBIT"> F  </i>
   <v name="RWIGS">     -1.00000000</v>
   <i type="int" name="NEDOS">   301</i>
   <i name="EMIN">     10.00000000</i>
   <i name="EMAX">    -10.00000000</i>
   <i name="EFERMI">      0.00000000</i>
  </separator>
  <separator name="writing" >
   <i type="int" name="NWRITE">     0</i>
   <i type="logical" name="LWAVE"> T  </i>
   <i type="logical" name="LCHARG"> T  </i>
   <i type="logical" name="LPARD"> F  </i>
   <i type="logical" name="LVTOT"> F  </i>
   <i type="logical" name="LVHAR"> F  </i>
   <i type="logical" name="LELF"> F  </i>
   <i type="logical" name="LOPTICS"> F  </i>
   <v name="STM">      0.00000000      0.00000000      0.00000000      0.00000000      0.00000000      0.00000000      0.00000000</v>
  </separator>
  <separator name="performance" >
   <i type="int" name="NPAR">     4</i>
   <i type="int" name="NSIM">     4</i>
   <i type="int" name="NBLK">    -1</i>
   <i type="logical" name="LPLANE"> T  </i>
   <i type="logical" name="LSCALAPACK"> T  </i>
   <i type="logical" name="LSCAAWARE"> F  </i>
   <i type="logical" name="LSCALU"> F  </i>
   <i type="logical" name="LASYNC"> F  </i>
   <i type="logical" name="LORBITALREAL"> F  </i>
  </separator>
  <separator name="miscellaneous" >
   <i type="int" name="IDIOT">     3</i>
   <i type="logical" name="LMUSIC"> F  </i>
   <v name="POMASS">     58.69000000</v>
   <v name="DARWINR">      0.00000000</v>
   <v name="DARWINV">      1.00000000</v>
   <i type="logical" name="LCORR"> T  </i>
  </separator>
  <i type="logical" name="GGA_COMPAT"> T  </i>
  <i type="logical" name="LBERRY"> F  </i>
  <i type="int" name="ICORELEVEL">     0</i>
  <i type="logical" name="LDAU"> F  </i>
  <i type="int" name="I_CONSTRAINED_M">     0</i>
  <separator name="electronic exchange-correlation" >
   <i type="string" name="GGA">--</i>
   <i type="int" name="VOSKOWN">     0</i>
   <i type="logical" name="LHFCALC"> F  </i>
   <i type="string" name="PRECFOCK"></i>
   <i type="logical" name="LSYMGRAD"> F  </i>
   <i type="logical" name="LHFONE"> F  </i>
   <i type="logical" name="LRHFCALC"> F  </i>
   <i type="logical" name="LTHOMAS"> F  </i>
   <i type="logical" name="LMODELHF"> F  </i>
   <i name="ENCUT4O">     -1.00000000</i>
   <i type="int" name="EXXOEP">     0</i>
   <i type="int" name="FOURORBIT">     0</i>
   <i name="AEXX">      0.00000000</i>
   <i name="HFALPHA">      0.00000000</i>
   <i name="MCALPHA">      0.00000000</i>
   <i name="ALDAX">      1.00000000</i>
   <i name="AGGAX">      1.00000000</i>
   <i name="ALDAC">      1.00000000</i>
   <i name="AGGAC">      1.00000000</i>
   <i type="int" name="NKREDX">     1</i>
   <i type="int" name="NKREDY">     1</i>
   <i type="int" name="NKREDZ">     1</i>
   <i type="logical" name="SHIFTRED"> F  </i>
   <i type="logical" name="ODDONLY"> F  </i>
   <i type="logical" name="EVENONLY"> F  </i>
   <i type="int" name="LMAXFOCK">     0</i>
   <i type="int" name="NMAXFOCKAE">     0</i>
   <i type="logical" name="LFOCKAEDFT"> F  </i>
   <i name="HFSCREEN">      0.00000000</i>
   <i name="HFSCREENC">      0.00000000</i>
   <i type="int" name="NBANDSGWLOW">     0</i>
  </separator>
  <separator name="vdW DFT" >
   <i type="logical" name="LUSE_VDW"> F  </i>
   <i name="Zab_VDW">     -0.84910000</i>
   <i name="PARAM1">      0.12340000</i>
   <i name="PARAM2">      1.00000000</i>
   <i name="PARAM3">      0.00000000</i>
  </separator>
  <separator name="model GW" >
   <i type="int" name="MODEL_GW">     0</i>
   <i name="MODEL_EPS0">      6.57004922</i>
   <i name="MODEL_ALPHA">      1.00000000</i>
  </separator>
  <separator name="linear response parameters" >
   <i type="logical" name="LEPSILON"> F  </i>
   <i type="logical" name="LRPA"> F  </i>
   <i type="logical" name="LNABLA"> F  </i>
   <i type="logical" name="LVEL"> F  </i>
   <i type="int" name="KINTER">     0</i>
   <i name="CSHIFT">      0.10000000</i>
   <i name="OMEGAMAX">     -1.00000000</i>
   <i name="DEG_THRESHOLD">      0.00200000</i>
  </separator>
  <separator name="orbital magnetization" >
   <i type="logical" name="NUCIND"> F  </i>
   <v name="MAGPOS">      0.00000000      0.00000000      0.00000000</v>
   <i type="logical" name="LNICSALL"> T  </i>
   <i type="logical" name="ORBITALMAG"> F  </i>
   <i type="logical" name="LMAGBLOCH"> F  </i>
   <i type="logical" name="LCHIMAG"> F  </i>
   <i type="logical" name="LGAUGE"> T  </i>
   <i type="int" name="MAGATOM">     0</i>
   <v name="MAGDIPOL">      0.00000000      0.00000000      0.00000000</v>
   <v name="AVECCONST">      0.00000000      0.00000000      0.00000000</v>
  </separator>
  <separator name="response functions" >
   <i type="logical" name="LADDER"> F  </i>
   <i type="logical" name="LFXC"> F  </i>
   <i type="logical" name="LHARTREE"> T  </i>
   <i type="int" name="IBSE">     0</i>
   <v type="int" name="KPOINT">    -1     0     0     0</v>
   <i type="logical" name="LTCTE"> F  </i>
   <i type="logical" name="LTETE"> F  </i>
   <i type="logical" name="LTRIPLET"> F  </i>
   <i type="logical" name="LFXCEPS"> F  </i>
   <i type="logical" name="LFXHEG"> F  </i>
   <i type="int" name="NATURALO">     0</i>
   <i type="logical" name="L2ORDER"> F  </i>
   <i type="logical" name="LUSEW"> F  </i>
   <i name="ENCUTGW">     -2.00000000</i>
   <i name="ENCUTGWSOFT">     -2.00000000</i>
   <i name="ENCUTLF">     -1.00000000</i>
   <i type="int" name="LMAXMP2">    -1</i>
   <i name="SCISSOR">      0.00000000</i>
   <i type="int" name="NOMEGA">     0</i>
   <i type="int" name="NOMEGAR">     0</i>
   <i type="int" name="NBANDSGW">    -1</i>
   <i type="int" name="NBANDSO">    -1</i>
   <i type="int" name="NBANDSV">    -1</i>
   <i type="int" name="NELM">     1</i>
   <i type="int" name="NELMHF">     1</i>
   <i type="int" name="DIM">     3</i>
   <i type="int" name="ANTIRES">     0</i>
   <i name="OMEGAMAX">    -30.00000000</i>
   <i name="OMEGAMIN">    -30.00000000</i>
   <i name="OMEGATL">   -200.00000000</i>
   <i type="int" name="OMEGAGRID">     0</i>
   <i name="CSHIFT">     -0.10000000</i>
   <i type="logical" name="SELFENERGY"> F  </i>
   <i type="logical" name="LSPECTRAL"> F  </i>
   <i type="logical" name="LSPECTRALGW"> F  </i>
   <i type="logical" name="LSINGLES"> F  </i>
   <i type="logical" name="LFERMIGW"> F  </i>
   <i type="logical" name="ODDONLYGW"> F  </i>
   <i type="logical" name="EVENONLYGW"> F  </i>
   <i type="int" name="NKREDLFX">     1</i>
   <i type="int" name="NKREDLFY">     1</i>
   <i type="int" name="NKREDLFZ">     1</i>
   <i type="int" name="MAXMEM">  1800</i>
   <i type="int" name="TELESCOPE">     0</i>
   <i type="int" name="TAUPAR">     1</i>
   <i type="int" name="OMEGAPAR">    -1</i>
   <i name="LAMBDA">      1.00000000</i>
  </separator>
  <separator name="External order field" >
   <i name="OFIELD_KAPPA">      0.00000000</i>
   <v name="OFIELD_K">      0.00000000      0.00000000      0.00000000</v>
   <i name="OFIELD_Q6_NEAR">      0.00000000</i>
   <i name="OFIELD_Q6_FAR">      0.00000000</i>
   <i name="OFIELD_A">      0.00000000</i>
  </separator>
 </parameters>
 <atominfo>
  <atoms>      64 </atoms>
  <types>       1 </types>
  <array name="atoms" >
   <dimension dim="1">ion</dimension>
   <field type="string">element</field>
   <field type="int">atomtype</field>
   <set>
    <rc><c>Ni</c><c>   1</c></rc>
    <rc><c>Ni</c><c>   1</c></rc>
    <rc><c>Ni</c><c>   1</c></rc>
    <rc><c>Ni</c><c>   1</c></rc>
    <rc><c>Ni</c><c>   1</c></rc>
    <rc><c>Ni</c><c>   1</c></rc>
    <rc><c>Ni</c><c>   1</c></rc>
    <rc><c>Ni</c><c>   1</c></rc>
    <rc><c>Ni</c><c>   1</c></rc>
    <rc><c>Ni</c><c>   1</c></rc>
    <rc><c>Ni</c><c>   1</c></rc>
    <rc><c>Ni</c><c>   1</c></rc>
    <rc><c>Ni</c><c>   1</c></rc>
    <rc><c>Ni</c><c>   1</c></rc>
    <rc><c>Ni</c><c>   1</c></rc>
    <rc><c>Ni</c><c>   1</c></rc>
    <rc><c>Ni</c><c>   1</c></rc>
    <rc><c>Ni</c><c>   1</c></rc>
    <rc><c>Ni</c><c>   1</c></rc>
    <rc><c>Ni</c><c>   1</c></rc>
    <rc><c>Ni</c><c>   1</c></rc>
    <rc><c>Ni</c><c>   1</c></rc>
    <rc><c>Ni</c><c>   1</c></rc>
    <rc><c>Ni</c><c>   1</c></rc>
    <rc><c>Ni</c><c>   1</c></rc>
    <rc><c>Ni</c><c>   1</c></rc>
    <rc><c>Ni</c><c>   1</c></rc>
    <rc><c>Ni</c><c>   1</c></rc>
    <rc><c>Ni</c><c>   1</c></rc>
    <rc><c>Ni</c><c>   1</c></rc>
    <rc><c>Ni</c><c>   1</c></rc>
    <rc><c>Ni</c><c>   1</c></rc>
    <rc><c>Ni</c><c>   1</c></rc>
    <rc><c>Ni</c><c>   1</c></rc>
    <rc><c>Ni</c><c>   1</c></rc>
    <rc><c>Ni</c><c>   1</c></rc>
    <rc><c>Ni</c><c>   1</c></rc>
    <rc><c>Ni</c><c>   1</c></rc>
    <rc><c>Ni</c><c>   1</c></rc>
    <rc><c>Ni</c><c>   1</c></rc>
    <rc><c>Ni</c><c>   1</c></rc>
    <rc><c>Ni</c><c>   1</c></rc>
    <rc><c>Ni</c><c>   1</c></rc>
    <rc><c>Ni</c><c>   1</c></rc>
    <rc><c>Ni</c><c>   1</c></rc>
    <rc><c>Ni</c><c>   1</c></rc>
    <rc><c>Ni</c><c>   1</c></rc>
    <rc><c>Ni</c><c>   1</c></rc>
    <rc><c>Ni</c><c>   1</c></rc>
    <rc><c>Ni</c><c>   1</c></rc>
    <rc><c>Ni</c><c>   1</c></rc>
    <rc><c>Ni</c><c>   1</c></rc>
    <rc><c>Ni</c><c>   1</c></rc>
    <rc><c>Ni</c><c>   1</c></rc>
    <rc><c>Ni</c><c>   1</c></rc>
    <rc><c>Ni</c><c>   1</c></rc>
    <rc><c>Ni</c><c>   1</c></rc>
    <rc><c>Ni</c><c>   1</c></rc>
    <rc><c>Ni</c><c>   1</c></rc>
    <rc><c>Ni</c><c>   1</c></rc>
    <rc><c>Ni</c><c>   1</c></rc>
    <rc><c>Ni</c><c>   1</c></rc>
    <rc><c>Ni</c><c>   1</c></rc>
    <rc><c>Ni</c><c>   1</c></rc>
   </set>
  </array>
  <array name="atomtypes" >
   <dimension dim="1">type</dimension>
   <field type="int">atomspertype</field>
   <field type="string">element</field>
   <field>mass</field>
   <field>valence</field>
   <field type="string">pseudopotential</field>
   <set>
    <rc><c>  64</c><c>Ni</c><c>     58.69000000</c><c>     16.00000000</c><c> PAW_PBE Ni_pv 06Sep2000                </c></rc>
   </set>
  </array>
 </atominfo>
 <structure name="initialpos" >
  <crystal>
   <varray name="basis" >
    <v>       0.00000000       7.05000000       7.05000000 </v>
    <v>       7.05000000       0.00000000       7.05000000 </v>
    <v>       7.05000000       7.05000000       0.00000000 </v>
   </varray>
   <i name="volume">    700.80525000 </i>
   <varray name="rec_basis" >
    <v>      -0.07092199       0.07092199       0.07092199 </v>
    <v>       0.07092199      -0.07092199       0.07092199 </v>
    <v>       0.07092199       0.07092199      -0.07092199 </v>
   </varray>
  </crystal>
  <varray name="positions" >
   <v>       0.00000000       0.00000000       0.00000000 </v>
   <v>       0.00000000       0.00000000       0.25000000 </v>
   <v>       0.00000000       0.00000000       0.50000000 </v>
   <v>       0.00000000       0.00000000       0.75000000 </v>
   <v>       0.00000000       0.25000000       0.00000000 </v>
   <v>       0.00000000       0.25000000       0.25000000 </v>
   <v>       0.00000000       0.25000000       0.50000000 </v>
   <v>       0.00000000       0.25000000       0.75000000 </v>
   <v>       0.00000000       0.50000000       0.00000000 </v>
   <v>       0.00000000       0.50000000       0.25000000 </v>
   <v>       0.00000000       0.50000000       0.50000000 </v>
   <v>       0.00000000       0.50000000       0.75000000 </v>
   <v>       0.00000000       0.75000000       0.00000000 </v>
   <v>       0.00000000       0.75000000       0.25000000 </v>
   <v>       0.00000000       0.75000000       0.50000000 </v>
   <v>       0.00000000       0.75000000       0.75000000 </v>
   <v>       0.25000000       0.00000000       0.00000000 </v>
   <v>       0.25000000       0.00000000       0.25000000 </v>
   <v>       0.25000000       0.00000000       0.50000000 </v>
   <v>       0.25000000       0.00000000       0.75000000 </v>
   <v>       0.25000000       0.25000000       0.00000000 </v>
   <v>       0.25000000       0.25000000       0.25000000 </v>
   <v>       0.25000000       0.25000000       0.50000000 </v>
   <v>       0.25000000       0.25000000       0.75000000 </v>
   <v>       0.25000000       0.50000000       0.00000000 </v>
   <v>       0.25000000       0.50000000       0.25000000 </v>
   <v>       0.25000000       0.50000000       0.50000000 </v>
   <v>       0.25000000       0.50000000       0.75000000 </v>
   <v>       0.25000000       0.75000000       0.00000000 </v>
   <v>       0.25000000       0.75000000       0.25000000 </v>
   <v>       0.25000000       0.75000000       0.50000000 </v>
   <v>       0.25000000       0.75000000       0.75000000 </v>
   <v>       0.50000000       0.00000000       0.00000000 </v>
   <v>       0.50000000       0.00000000       0.25000000 </v>
   <v>       0.50000000       0.00000000       0.50000000 </v>
   <v>       0.50000000       0.00000000       0.75000000 </v>
   <v>       0.50000000       0.25000000       0.00000000 </v>
   <v>       0.50000000       0.25000000       0.25000000 </v>
   <v>       0.50000000       0.25000000       0.50000000 </v>
   <v>       0.50000000       0.25000000       0.75000000 </v>
   <v>       0.50000000       0.50000000       0.00000000 </v>
   <v>       0.50000000       0.50000000       0.25000000 </v>
   <v>       0.50000000       0.50000000       0.50000000 </v>
   <v>       0.50000000       0.50000000       0.75000000 </v>
   <v>       0.50000000       0.75000000       0.00000000 </v>
   <v>       0.50000000       0.75000000       0.25000000 </v>
   <v>       0.50000000       0.75000000       0.50000000 </v>
   <v>       0.50000000       0.75000000       0.75000000 </v>
   <v>       0.75000000       0.00000000       0.00000000 </v>
   <v>       0.75000000       0.00000000       0.25000000 </v>
   <v>       0.75000000       0.00000000       0.50000000 </v>
   <v>       0.75000000       0.00000000       0.75000000 </v>
   <v>       0.75000000       0.25000000       0.00000000 </v>
   <v>       0.75000000       0.25000000       0.25000000 </v>
   <v>       0.75000000       0.25000000       0.50000000 </v>
   <v>       0.75000000       0.25000000       0.75000000 </v>
   <v>       0.75000000       0.50000000       0.00000000 </v>
   <v>       0.75000000       0.50000000       0.25000000 </v>
   <v>       0.75000000       0.50000000       0.50000000 </v>
   <v>       0.75000000       0.50000000       0.75000000 </v>
   <v>       0.75000000       0.75000000       0.00000000 </v>
   <v>       0.75000000       0.75000000       0.25000000 </v>
   <v>       0.75000000       0.75000000       0.50000000 </v>
   <v>       0.75000000       0.75000000       0.75000000 </v>
  </varray>
 </structure>
 <calculation>
  <scstep>
   <time name="dav">  662.50  661.98</time>
   <time name="total">  664.07  663.57</time>
   <energy>
    <i name="alphaZ">   9846.09864404 </i>
    <i name="ewald">-153431.04596335 </i>
    <i name="hartreedc"> -61842.66455428 </i>
    <i name="XCdc">   5718.00711085 </i>
    <i name="pawpsdc"> 172361.15642774 </i>
    <i name="pawaedc">-181272.45834873 </i>
    <i name="eentropy">      0.01037299 </i>
    <i name="bandstr">  -1472.00196837 </i>
    <i name="atom"> 224013.29143063 </i>
    <i name="e_fr_energy">  13920.39315152 </i>
    <i name="e_wo_entrp">  13920.38277854 </i>
    <i name="e_0_energy">  13920.38969386 </i>
   </energy>
  </scstep>
  <scstep>
   <time name="dav">  580.76  580.29</time>
   <time name="total">  580.80  580.34</time>
   <energy>
    <i name="e_fr_energy">    816.61816175 </i>
    <i name="e_wo_entrp">    816.61287554 </i>
    <i name="e_0_energy">    816.61639968 </i>
   </energy>
  </scstep>
  <scstep>
   <time name="dav">  592.58  592.09</time>
   <time name="total">  592.62  592.14</time>
   <energy>
    <i name="e_fr_energy">   -370.17998587 </i>
    <i name="e_wo_entrp">   -370.17199229 </i>
    <i name="e_0_energy">   -370.17732134 </i>
   </energy>
  </scstep>
  <scstep>
   <time name="dav">  611.08  610.59</time>
   <time name="total">  611.11  610.62</time>
   <energy>
    <i name="e_fr_energy">   -430.54288615 </i>
    <i name="e_wo_entrp">   -430.59623046 </i>
    <i name="e_0_energy">   -430.56066759 </i>
   </energy>
  </scstep>
  <scstep>
   <time name="dav">  605.67  605.19</time>
   <time name="total">  631.50  630.99</time>
   <energy>
    <i name="e_fr_energy">   -431.42372219 </i>
    <i name="e_wo_entrp">   -431.47788303 </i>
    <i name="e_0_energy">   -431.44177580 </i>
   </energy>
  </scstep>
  <scstep>
   <time name="dav">  600.63  600.15</time>
   <time name="total">  627.33  626.83</time>
   <energy>
    <i name="e_fr_energy">   -395.97902323 </i>
    <i name="e_wo_entrp">   -395.69769684 </i>
    <i name="e_0_energy">   -395.88524777 </i>
   </energy>
  </scstep>
  <scstep>
   <time name="dav">  597.14  596.66</time>
   <time name="total">  623.75  623.24</time>
   <energy>
    <i name="e_fr_energy">   -368.34571506 </i>
    <i name="e_wo_entrp">   -368.22988990 </i>
    <i name="e_0_energy">   -368.30710667 </i>
   </energy>
  </scstep>
  <scstep>
   <time name="dav">  596.50  596.02</time>
   <time name="total">  623.03  622.54</time>
   <energy>
    <i name="e_fr_energy">   -368.37160648 </i>
    <i name="e_wo_entrp">   -368.26378417 </i>
    <i name="e_0_energy">   -368.33566571 </i>
   </energy>
  </scstep>
  <scstep>
   <time name="dav">  608.51  608.02</time>
   <time name="total">  635.30  634.80</time>
   <energy>
    <i name="e_fr_energy">   -368.32844376 </i>
    <i name="e_wo_entrp">   -368.21872055 </i>
    <i name="e_0_energy">   -368.29186936 </i>
   </energy>
  </scstep>
  <scstep>
   <time name="dav">  627.36  626.85</time>
   <time name="total">  654.11  653.58</time>
   <energy>
    <i name="e_fr_energy">   -368.33021206 </i>
    <i name="e_wo_entrp">   -368.22080545 </i>
    <i name="e_0_energy">   -368.29374319 </i>
   </energy>
  </scstep>
  <scstep>
   <time name="dav">  587.92  587.45</time>
   <time name="total">  614.60  614.10</time>
   <energy>
    <i name="e_fr_energy">   -368.33328594 </i>
    <i name="e_wo_entrp">   -368.22394868 </i>
    <i name="e_0_energy">   -368.29684019 </i>
   </energy>
  </scstep>
  <scstep>
   <time name="dav">  604.10  603.61</time>
   <time name="total">  630.82  630.31</time>
   <energy>
    <i name="e_fr_energy">   -368.33340694 </i>
    <i name="e_wo_entrp">   -368.22347124 </i>
    <i name="e_0_energy">   -368.29676170 </i>
   </energy>
  </scstep>
  <scstep>
   <time name="dav">  534.13  533.70</time>
   <time name="total">  560.69  560.23</time>
   <energy>
    <i name="e_fr_energy">   -368.33342463 </i>
    <i name="e_wo_entrp">   -368.22346399 </i>
    <i name="e_0_energy">   -368.29677108 </i>
   </energy>
  </scstep>
  <scstep>
   <time name="dav">  493.39  492.99</time>
   <time name="total">  519.99  519.57</time>
   <energy>
    <i name="e_fr_energy">   -368.33340214 </i>
    <i name="e_wo_entrp">   -368.22348529 </i>
    <i name="e_0_energy">   -368.29676319 </i>
   </energy>
  </scstep>
  <scstep>
   <time name="dav">  365.35  365.05</time>
   <time name="total">  391.90  391.58</time>
   <energy>
    <i name="e_fr_energy">   -368.33339396 </i>
    <i name="e_wo_entrp">   -368.22349304 </i>
    <i name="e_0_energy">   -368.29676032 </i>
   </energy>
  </scstep>
  <scstep>
   <time name="dav">  368.81  368.51</time>
   <time name="total">  370.22  369.92</time>
   <energy>
    <i name="alphaZ">   9846.09864404 </i>
    <i name="ewald">-153431.04596335 </i>
    <i name="hartreedc"> -59492.96559441 </i>
    <i name="XCdc">   5628.20586965 </i>
    <i name="pawpsdc"> 172165.06679712 </i>
    <i name="pawaedc">-181212.84841878 </i>
    <i name="eentropy">     -0.10989933 </i>
    <i name="bandstr"> -17884.02625984 </i>
    <i name="atom"> 224013.29143063 </i>
    <i name="e_fr_energy">   -368.33339428 </i>
    <i name="e_wo_entrp">   -368.22349495 </i>
    <i name="e_0_energy">   -368.29676117 </i>
   </energy>
  </scstep>
  <structure>
   <crystal>
    <varray name="basis" >
     <v>       0.00000000       7.05000000       7.05000000 </v>
     <v>       7.05000000       0.00000000       7.05000000 </v>
     <v>       7.05000000       7.05000000       0.00000000 </v>
    </varray>
    <i name="volume">    700.80525000 </i>
    <varray name="rec_basis" >
     <v>      -0.07092199       0.07092199       0.07092199 </v>
     <v>       0.07092199      -0.07092199       0.07092199 </v>
     <v>       0.07092199       0.07092199      -0.07092199 </v>
    </varray>
   </crystal>
   <varray name="positions" >
    <v>       0.00000000       0.00000000       0.00000000 </v>
    <v>       0.00000000       0.00000000       0.25000000 </v>
    <v>       0.00000000       0.00000000       0.50000000 </v>
    <v>       0.00000000       0.00000000       0.75000000 </v>
    <v>       0.00000000       0.25000000       0.00000000 </v>
    <v>       0.00000000       0.25000000       0.25000000 </v>
    <v>       0.00000000       0.25000000       0.50000000 </v>
    <v>       0.00000000       0.25000000       0.75000000 </v>
    <v>       0.00000000       0.50000000       0.00000000 </v>
    <v>       0.00000000       0.50000000       0.25000000 </v>
    <v>       0.00000000       0.50000000       0.50000000 </v>
    <v>       0.00000000       0.50000000       0.75000000 </v>
    <v>       0.00000000       0.75000000       0.00000000 </v>
    <v>       0.00000000       0.75000000       0.25000000 </v>
    <v>       0.00000000       0.75000000       0.50000000 </v>
    <v>       0.00000000       0.75000000       0.75000000 </v>
    <v>       0.25000000       0.00000000       0.00000000 </v>
    <v>       0.25000000       0.00000000       0.25000000 </v>
    <v>       0.25000000       0.00000000       0.50000000 </v>
    <v>       0.25000000       0.00000000       0.75000000 </v>
    <v>       0.25000000       0.25000000       0.00000000 </v>
    <v>       0.25000000       0.25000000       0.25000000 </v>
    <v>       0.25000000       0.25000000       0.50000000 </v>
    <v>       0.25000000       0.25000000       0.75000000 </v>
    <v>       0.25000000       0.50000000       0.00000000 </v>
    <v>       0.25000000       0.50000000       0.25000000 </v>
    <v>       0.25000000       0.50000000       0.50000000 </v>
    <v>       0.25000000       0.50000000       0.75000000 </v>
    <v>       0.25000000       0.75000000       0.00000000 </v>
    <v>       0.25000000       0.75000000       0.25000000 </v>
    <v>       0.25000000       0.75000000       0.50000000 </v>
    <v>       0.25000000       0.75000000       0.75000000 </v>
    <v>       0.50000000       0.00000000       0.00000000 </v>
    <v>       0.50000000       0.00000000       0.25000000 </v>
    <v>       0.50000000       0.00000000       0.50000000 </v>
    <v>       0.50000000       0.00000000       0.75000000 </v>
    <v>       0.50000000       0.25000000       0.00000000 </v>
    <v>       0.50000000       0.25000000       0.25000000 </v>
    <v>       0.50000000       0.25000000       0.50000000 </v>
    <v>       0.50000000       0.25000000       0.75000000 </v>
    <v>       0.50000000       0.50000000       0.00000000 </v>
    <v>       0.50000000       0.50000000       0.25000000 </v>
    <v>       0.50000000       0.50000000       0.50000000 </v>
    <v>       0.50000000       0.50000000       0.75000000 </v>
    <v>       0.50000000       0.75000000       0.00000000 </v>
    <v>       0.50000000       0.75000000       0.25000000 </v>
    <v>       0.50000000       0.75000000       0.50000000 </v>
    <v>       0.50000000       0.75000000       0.75000000 </v>
    <v>       0.75000000       0.00000000       0.00000000 </v>
    <v>       0.75000000       0.00000000       0.25000000 </v>
    <v>       0.75000000       0.00000000       0.50000000 </v>
    <v>       0.75000000       0.00000000       0.75000000 </v>
    <v>       0.75000000       0.25000000       0.00000000 </v>
    <v>       0.75000000       0.25000000       0.25000000 </v>
    <v>       0.75000000       0.25000000       0.50000000 </v>
    <v>       0.75000000       0.25000000       0.75000000 </v>
    <v>       0.75000000       0.50000000       0.00000000 </v>
    <v>       0.75000000       0.50000000       0.25000000 </v>
    <v>       0.75000000       0.50000000       0.50000000 </v>
    <v>       0.75000000       0.50000000       0.75000000 </v>
    <v>       0.75000000       0.75000000       0.00000000 </v>
    <v>       0.75000000       0.75000000       0.25000000 </v>
    <v>       0.75000000       0.75000000       0.50000000 </v>
    <v>       0.75000000       0.75000000       0.75000000 </v>
   </varray>
  </structure>
  <varray name="forces" >
   <v>      -0.00000000      -0.00000000      -0.00000000 </v>
   <v>      -0.00000000       0.00000000       0.00000000 </v>
   <v>       0.00000000      -0.00000000      -0.00000000 </v>
   <v>       0.00000000       0.00000000      -0.00000000 </v>
   <v>      -0.00000000      -0.00000000       0.00000000 </v>
   <v>       0.00000000      -0.00000000       0.00000000 </v>
   <v>      -0.00000000       0.00000000      -0.00000000 </v>
   <v>       0.00000000       0.00000000       0.00000000 </v>
   <v>      -0.00000000      -0.00000000      -0.00000000 </v>
   <v>       0.00000000      -0.00000000       0.00000000 </v>
   <v>      -0.00000000      -0.00000000      -0.00000000 </v>
   <v>      -0.00000000      -0.00000000       0.00000000 </v>
   <v>       0.00000000       0.00000000      -0.00000000 </v>
   <v>       0.00000000      -0.00000000       0.00000000 </v>
   <v>       0.00000000       0.00000000      -0.00000000 </v>
   <v>       0.00000000       0.00000000      -0.00000000 </v>
   <v>       0.00000000      -0.00000000       0.00000000 </v>
   <v>       0.00000000      -0.00000000      -0.00000000 </v>
   <v>       0.00000000       0.00000000      -0.00000000 </v>
   <v>       0.00000000       0.00000000      -0.00000000 </v>
   <v>       0.00000000      -0.00000000       0.00000000 </v>
   <v>      -0.00000000      -0.00000000       0.00000000 </v>
   <v>      -0.00000000       0.00000000      -0.00000000 </v>
   <v>       0.00000000       0.00000000       0.00000000 </v>
   <v>      -0.00000000       0.00000000      -0.00000000 </v>
   <v>       0.00000000       0.00000000       0.00000000 </v>
   <v>       0.00000000       0.00000000      -0.00000000 </v>
   <v>       0.00000000       0.00000000      -0.00000000 </v>
   <v>       0.00000000      -0.00000000      -0.00000000 </v>
   <v>      -0.00000000       0.00000000       0.00000000 </v>
   <v>      -0.00000000      -0.00000000      -0.00000000 </v>
   <v>      -0.00000000       0.00000000      -0.00000000 </v>
   <v>      -0.00000000      -0.00000000      -0.00000000 </v>
   <v>       0.00000000       0.00000000       0.00000000 </v>
   <v>       0.00000000       0.00000000       0.00000000 </v>
   <v>       0.00000000       0.00000000       0.00000000 </v>
   <v>      -0.00000000       0.00000000       0.00000000 </v>
   <v>      -0.00000000      -0.00000000       0.00000000 </v>
   <v>      -0.00000000       0.00000000      -0.00000000 </v>
   <v>       0.00000000       0.00000000       0.00000000 </v>
   <v>      -0.00000000      -0.00000000      -0.00000000 </v>
   <v>       0.00000000      -0.00000000       0.00000000 </v>
   <v>       0.00000000       0.00000000      -0.00000000 </v>
   <v>       0.00000000      -0.00000000      -0.00000000 </v>
   <v>       0.00000000      -0.00000000      -0.00000000 </v>
   <v>       0.00000000      -0.00000000       0.00000000 </v>
   <v>      -0.00000000      -0.00000000      -0.00000000 </v>
   <v>       0.00000000       0.00000000       0.00000000 </v>
   <v>      -0.00000000      -0.00000000       0.00000000 </v>
   <v>       0.00000000       0.00000000       0.00000000 </v>
   <v>       0.00000000       0.00000000      -0.00000000 </v>
   <v>       0.00000000      -0.00000000       0.00000000 </v>
   <v>      -0.00000000       0.00000000       0.00000000 </v>
   <v>      -0.00000000      -0.00000000       0.00000000 </v>
   <v>      -0.00000000      -0.00000000      -0.00000000 </v>
   <v>       0.00000000       0.00000000       0.00000000 </v>
   <v>      -0.00000000      -0.00000000       0.00000000 </v>
   <v>       0.00000000      -0.00000000       0.00000000 </v>
   <v>       0.00000000       0.00000000      -0.00000000 </v>
   <v>      -0.00000000       0.00000000      -0.00000000 </v>
   <v>      -0.00000000      -0.00000000      -0.00000000 </v>
   <v>       0.00000000      -0.00000000       0.00000000 </v>
   <v>      -0.00000000       0.00000000      -0.00000000 </v>
   <v>       0.00000000       0.00000000      -0.00000000 </v>
  </varray>
  <varray name="stress" >
   <v>    -156.19870203       0.00000000       0.00000000 </v>
   <v>      -0.00000000    -156.19870203       0.00000000 </v>
   <v>       0.00000000      -0.00000000    -156.19870203 </v>
  </varray>
  <energy>
   <i name="e_fr_energy">   -368.33339428 </i>
   <i name="e_wo_entrp">   -368.29676117 </i>
   <i name="e_0_energy">     -0.10989933 </i>
  </energy>
  <kpoints>
   <generation param="Gamma">
    <v type="int" name="divisions">       5        5        5 </v>
    <v name="usershift">      0.00000000       0.00000000       0.00000000 </v>
    <v name="genvec1">      0.20000000       0.00000000       0.00000000 </v>
    <v name="genvec2">      0.00000000       0.20000000       0.00000000 </v>
    <v name="genvec3">      0.00000000       0.00000000       0.20000000 </v>
    <v name="shift">      0.00000000       0.00000000       0.00000000 </v>
   </generation>
   <varray name="kpointlist" >
    <v>       0.00000000       0.00000000       0.00000000 </v>
    <v>       0.20000000       0.00000000       0.00000000 </v>
    <v>       0.40000000       0.00000000       0.00000000 </v>
    <v>       0.20000000       0.20000000       0.00000000 </v>
    <v>       0.40000000       0.20000000       0.00000000 </v>
    <v>      -0.40000000       0.20000000       0.00000000 </v>
    <v>      -0.20000000       0.20000000       0.00000000 </v>
    <v>       0.40000000       0.40000000       0.00000000 </v>
    <v>      -0.40000000       0.40000000       0.00000000 </v>
    <v>       0.00000000       0.20000000       0.20000000 </v>
    <v>       0.40000000       0.20000000       0.20000000 </v>
    <v>      -0.40000000       0.20000000       0.20000000 </v>
    <v>      -0.20000000       0.20000000       0.20000000 </v>
    <v>      -0.40000000       0.40000000       0.20000000 </v>
    <v>      -0.20000000       0.40000000       0.20000000 </v>
    <v>       0.40000000      -0.40000000       0.20000000 </v>
    <v>       0.00000000       0.40000000       0.40000000 </v>
    <v>      -0.20000000       0.40000000       0.40000000 </v>
   </varray>
   <varray name="weights" >
    <v>       0.00800000 </v>
    <v>       0.06400000 </v>
    <v>       0.06400000 </v>
    <v>       0.03200000 </v>
    <v>       0.12800000 </v>
    <v>       0.12800000 </v>
    <v>       0.06400000 </v>
    <v>       0.03200000 </v>
    <v>       0.06400000 </v>
    <v>       0.01600000 </v>
    <v>       0.03200000 </v>
    <v>       0.06400000 </v>
    <v>       0.06400000 </v>
    <v>       0.06400000 </v>
    <v>       0.06400000 </v>
    <v>       0.06400000 </v>
    <v>       0.01600000 </v>
    <v>       0.03200000 </v>
   </varray>
  </kpoints>
  <time name="totalsc">10131.4610123.58</time>
 </calculation>
 <calculation>
  <scstep>
   <time name="dav"> 1314.07 1313.00</time>
   <time name="total"> 1352.61 1351.51</time>
   <energy>
    <i name="alphaZ">   9846.09864404 </i>
    <i name="ewald">-153430.88980221 </i>
    <i name="hartreedc"> -59493.11633046 </i>
    <i name="XCdc">   5628.20663562 </i>
    <i name="pawpsdc"> 172164.92671662 </i>
    <i name="pawaedc">-181212.71733265 </i>
    <i name="eentropy">     -0.10987799 </i>
    <i name="bandstr"> -17883.95031208 </i>
    <i name="atom"> 224013.29143063 </i>
    <i name="e_fr_energy">   -368.26022848 </i>
    <i name="e_wo_entrp">   -368.15035049 </i>
    <i name="e_0_energy">   -368.22360248 </i>
   </energy>
  </scstep>
  <scstep>
   <time name="dav"> 1075.52 1074.65</time>
   <time name="total"> 1114.00 1113.10</time>
   <energy>
    <i name="e_fr_energy">   -368.33309910 </i>
    <i name="e_wo_entrp">   -368.22329503 </i>
    <i name="e_0_energy">   -368.29649774 </i>
   </energy>
  </scstep>
  <scstep>
   <time name="dav"> 1212.18 1211.20</time>
   <time name="total"> 1250.54 1249.54</time>
   <energy>
    <i name="e_fr_energy">   -368.33411763 </i>
    <i name="e_wo_entrp">   -368.22424556 </i>
    <i name="e_0_energy">   -368.29749361 </i>
   </energy>
  </scstep>
  <scstep>
   <time name="dav"> 1231.38 1230.38</time>
   <time name="total"> 1269.94 1268.91</time>
   <energy>
    <i name="e_fr_energy">   -368.33363410 </i>
    <i name="e_wo_entrp">   -368.22378850 </i>
    <i name="e_0_energy">   -368.29701890 </i>
   </energy>
  </scstep>
  <scstep>
   <time name="dav"> 1118.14 1117.24</time>
   <time name="total"> 1156.62 1155.69</time>
   <energy>
    <i name="e_fr_energy">   -368.33252615 </i>
    <i name="e_wo_entrp">   -368.22264469 </i>
    <i name="e_0_energy">   -368.29589899 </i>
   </energy>
  </scstep>
  <scstep>
   <time name="dav"> 1272.17 1271.15</time>
   <time name="total"> 1310.63 1309.58</time>
   <energy>
    <i name="e_fr_energy">   -368.33251348 </i>
    <i name="e_wo_entrp">   -368.22262961 </i>
    <i name="e_0_energy">   -368.29588552 </i>
   </energy>
  </scstep>
  <scstep>
   <time name="dav"> 1128.59 1127.67</time>
   <time name="total"> 1166.98 1166.04</time>
   <energy>
    <i name="e_fr_energy">   -368.33246623 </i>
    <i name="e_wo_entrp">   -368.22258235 </i>
    <i name="e_0_energy">   -368.29583827 </i>
   </energy>
  </scstep>
  <scstep>
   <time name="dav"> 1140.45 1139.52</time>
   <time name="total"> 1178.44 1177.50</time>
   <energy>
    <i name="e_fr_energy">   -368.33245206 </i>
    <i name="e_wo_entrp">   -368.22256707 </i>
    <i name="e_0_energy">   -368.29582373 </i>
   </energy>
  </scstep>
  <scstep>
   <time name="dav"> 1188.11 1187.14</time>
   <time name="total"> 1226.58 1225.60</time>
   <energy>
    <i name="e_fr_energy">   -368.33244799 </i>
    <i name="e_wo_entrp">   -368.22256363 </i>
    <i name="e_0_energy">   -368.29581987 </i>
   </energy>
  </scstep>
  <scstep>
   <time name="dav"> 1249.39 1248.38</time>
   <time name="total"> 1287.82 1286.79</time>
   <energy>
    <i name="e_fr_energy">   -368.33236628 </i>
    <i name="e_wo_entrp">   -368.22248079 </i>
    <i name="e_0_energy">   -368.29573779 </i>
   </energy>
  </scstep>
  <scstep>
   <time name="dav"> 1308.77 1307.71</time>
   <time name="total"> 1347.33 1346.24</time>
   <energy>
    <i name="e_fr_energy">   -368.33237342 </i>
    <i name="e_wo_entrp">   -368.22248881 </i>
    <i name="e_0_energy">   -368.29574522 </i>
   </energy>
  </scstep>
  <scstep>
   <time name="dav"> 1104.35 1103.45</time>
   <time name="total"> 1142.93 1142.00</time>
   <energy>
    <i name="e_fr_energy">   -368.33236838 </i>
    <i name="e_wo_entrp">   -368.22248565 </i>
    <i name="e_0_energy">   -368.29574081 </i>
   </energy>
  </scstep>
  <scstep>
   <time name="dav">  678.21  677.66</time>
   <time name="total">  679.64  679.09</time>
   <energy>
    <i name="alphaZ">   9846.09864404 </i>
    <i name="ewald">-153430.88980221 </i>
    <i name="hartreedc"> -59493.11177700 </i>
    <i name="XCdc">   5628.20626053 </i>
    <i name="pawpsdc"> 172164.79893800 </i>
    <i name="pawaedc">-181212.59222063 </i>
    <i name="eentropy">     -0.10988288 </i>
    <i name="bandstr"> -17884.02395866 </i>
    <i name="atom"> 224013.29143063 </i>
    <i name="e_fr_energy">   -368.33236818 </i>
    <i name="e_wo_entrp">   -368.22248530 </i>
    <i name="e_0_energy">   -368.29574055 </i>
   </energy>
  </scstep>
  <structure>
   <crystal>
    <varray name="basis" >
     <v>       0.00000000       7.05000000       7.05000000 </v>
     <v>       7.05000000       0.00000000       7.05000000 </v>
     <v>       7.05000000       7.05000000       0.00000000 </v>
    </varray>
    <i name="volume">    700.80525000 </i>
    <varray name="rec_basis" >
     <v>      -0.07092199       0.07092199       0.07092199 </v>
     <v>       0.07092199      -0.07092199       0.07092199 </v>
     <v>       0.07092199       0.07092199      -0.07092199 </v>
    </varray>
   </crystal>
   <varray name="positions" >
    <v>      -0.00106383       0.00106383       0.00106383 </v>
    <v>       0.00000000       0.00000000       0.25000000 </v>
    <v>       0.00000000       0.00000000       0.50000000 </v>
    <v>       0.00000000       0.00000000       0.75000000 </v>
    <v>       0.00000000       0.25000000       0.00000000 </v>
    <v>       0.00000000       0.25000000       0.25000000 </v>
    <v>       0.00000000       0.25000000       0.50000000 </v>
    <v>       0.00000000       0.25000000       0.75000000 </v>
    <v>       0.00000000       0.50000000       0.00000000 </v>
    <v>       0.00000000       0.50000000       0.25000000 </v>
    <v>       0.00000000       0.50000000       0.50000000 </v>
    <v>       0.00000000       0.50000000       0.75000000 </v>
    <v>       0.00000000       0.75000000       0.00000000 </v>
    <v>       0.00000000       0.75000000       0.25000000 </v>
    <v>       0.00000000       0.75000000       0.50000000 </v>
    <v>       0.00000000       0.75000000       0.75000000 </v>
    <v>       0.25000000       0.00000000       0.00000000 </v>
    <v>       0.25000000       0.00000000       0.25000000 </v>
    <v>       0.25000000       0.00000000       0.50000000 </v>
    <v>       0.25000000       0.00000000       0.75000000 </v>
    <v>       0.25000000       0.25000000       0.00000000 </v>
    <v>       0.25000000       0.25000000       0.25000000 </v>
    <v>       0.25000000       0.25000000       0.50000000 </v>
    <v>       0.25000000       0.25000000       0.75000000 </v>
    <v>       0.25000000       0.50000000       0.00000000 </v>
    <v>       0.25000000       0.50000000       0.25000000 </v>
    <v>       0.25000000       0.50000000       0.50000000 </v>
    <v>       0.25000000       0.50000000       0.75000000 </v>
    <v>       0.25000000       0.75000000       0.00000000 </v>
    <v>       0.25000000       0.75000000       0.25000000 </v>
    <v>       0.25000000       0.75000000       0.50000000 </v>
    <v>       0.25000000       0.75000000       0.75000000 </v>
    <v>       0.50000000       0.00000000       0.00000000 </v>
    <v>       0.50000000       0.00000000       0.25000000 </v>
    <v>       0.50000000       0.00000000       0.50000000 </v>
    <v>       0.50000000       0.00000000       0.75000000 </v>
    <v>       0.50000000       0.25000000       0.00000000 </v>
    <v>       0.50000000       0.25000000       0.25000000 </v>
    <v>       0.50000000       0.25000000       0.50000000 </v>
    <v>       0.50000000       0.25000000       0.75000000 </v>
    <v>       0.50000000       0.50000000       0.00000000 </v>
    <v>       0.50000000       0.50000000       0.25000000 </v>
    <v>       0.50000000       0.50000000       0.50000000 </v>
    <v>       0.50000000       0.50000000       0.75000000 </v>
    <v>       0.50000000       0.75000000       0.00000000 </v>
    <v>       0.50000000       0.75000000       0.25000000 </v>
    <v>       0.50000000       0.75000000       0.50000000 </v>
    <v>       0.50000000       0.75000000       0.75000000 </v>
    <v>       0.75000000       0.00000000       0.00000000 </v>
    <v>       0.75000000       0.00000000       0.25000000 </v>
    <v>       0.75000000       0.00000000       0.50000000 </v>
    <v>       0.75000000       0.00000000       0.75000000 </v>
    <v>       0.75000000       0.25000000       0.00000000 </v>
    <v>       0.75000000       0.25000000       0.25000000 </v>
    <v>       0.75000000       0.25000000       0.50000000 </v>
    <v>       0.75000000       0.25000000       0.75000000 </v>
    <v>       0.75000000       0.50000000       0.00000000 </v>
    <v>       0.75000000       0.50000000       0.25000000 </v>
    <v>       0.75000000       0.50000000       0.50000000 </v>
    <v>       0.75000000       0.50000000       0.75000000 </v>
    <v>       0.75000000       0.75000000       0.00000000 </v>
    <v>       0.75000000       0.75000000       0.25000000 </v>
    <v>       0.75000000       0.75000000       0.50000000 </v>
    <v>       0.75000000       0.75000000       0.75000000 </v>
   </varray>
  </structure>
  <varray name="forces" >
   <v>      -0.13364105      -0.00000000      -0.00000000 </v>
   <v>       0.01595118       0.01809217      -0.00000000 </v>
   <v>      -0.00017890      -0.00040897      -0.00000000 </v>
   <v>       0.01518054       0.01703730      -0.00000000 </v>
   <v>       0.01595118      -0.00000000       0.01809217 </v>
   <v>       0.00110904       0.00066747       0.00066747 </v>
   <v>       0.00019998       0.00071294      -0.00035293 </v>
   <v>      -0.00030747       0.00008267      -0.00008267 </v>
   <v>      -0.00017890      -0.00000000      -0.00040897 </v>
   <v>       0.00019998      -0.00035293       0.00071294 </v>
   <v>      -0.00000492      -0.00000000      -0.00000000 </v>
   <v>       0.00022525      -0.00037520       0.00060276 </v>
   <v>       0.01518054      -0.00000000       0.01703730 </v>
   <v>      -0.00030747      -0.00008267       0.00008267 </v>
   <v>       0.00022525       0.00060276      -0.00037520 </v>
   <v>       0.00120193       0.00063208       0.00063208 </v>
   <v>      -0.00030747      -0.00008267      -0.00008267 </v>
   <v>       0.00022525       0.00060276       0.00037520 </v>
   <v>       0.00120193       0.00063208      -0.00063208 </v>
   <v>       0.01518054      -0.00000000      -0.01703730 </v>
   <v>       0.00022525       0.00037520       0.00060276 </v>
   <v>      -0.00003492      -0.00000000      -0.00000000 </v>
   <v>       0.00019998       0.00035293      -0.00071294 </v>
   <v>      -0.00060332      -0.00000000      -0.00010490 </v>
   <v>       0.00120193      -0.00063208       0.00063208 </v>
   <v>       0.00019998      -0.00071294       0.00035293 </v>
   <v>      -0.00041725      -0.00007371      -0.00007371 </v>
   <v>       0.00001845      -0.00000000      -0.00025118 </v>
   <v>       0.01518054      -0.01703730      -0.00000000 </v>
   <v>      -0.00060332      -0.00010490      -0.00000000 </v>
   <v>       0.00001845      -0.00025118      -0.00000000 </v>
   <v>       0.00193800      -0.00000000      -0.00000000 </v>
   <v>      -0.00000492      -0.00000000      -0.00000000 </v>
   <v>       0.00022525      -0.00037520      -0.00060276 </v>
   <v>      -0.00017890      -0.00000000       0.00040897 </v>
   <v>       0.00019998      -0.00035293      -0.00071294 </v>
   <v>       0.00022525      -0.00060276      -0.00037520 </v>
   <v>       0.00110904      -0.00066747      -0.00066747 </v>
   <v>      -0.00014720      -0.00000000       0.00009558 </v>
   <v>      -0.00041725       0.00007371      -0.00007371 </v>
   <v>      -0.00017890       0.00040897      -0.00000000 </v>
   <v>      -0.00014720       0.00009558      -0.00000000 </v>
   <v>      -0.00057168      -0.00000000      -0.00000000 </v>
   <v>       0.00001845       0.00025118      -0.00000000 </v>
   <v>       0.00019998      -0.00071294      -0.00035293 </v>
   <v>      -0.00041725      -0.00007371       0.00007371 </v>
   <v>       0.00001845      -0.00000000       0.00025118 </v>
   <v>       0.00120193      -0.00063208      -0.00063208 </v>
   <v>      -0.00030747       0.00008267       0.00008267 </v>
   <v>       0.01595118      -0.00000000      -0.01809217 </v>
   <v>       0.00110904       0.00066747      -0.00066747 </v>
   <v>       0.00019998       0.00071294       0.00035293 </v>
   <v>       0.01595118      -0.01809217      -0.00000000 </v>
   <v>       0.00172458      -0.00000000      -0.00000000 </v>
   <v>      -0.00014720      -0.00009558      -0.00000000 </v>
   <v>      -0.00060332       0.00010490      -0.00000000 </v>
   <v>       0.00110904      -0.00066747       0.00066747 </v>
   <v>      -0.00014720      -0.00000000      -0.00009558 </v>
   <v>      -0.00041725       0.00007371       0.00007371 </v>
   <v>       0.00022525      -0.00060276       0.00037520 </v>
   <v>       0.00019998       0.00035293       0.00071294 </v>
   <v>      -0.00060332      -0.00000000       0.00010490 </v>
   <v>       0.00022525       0.00037520      -0.00060276 </v>
   <v>      -0.00003492      -0.00000000      -0.00000000 </v>
  </varray>
  <varray name="stress" >
   <v>    -156.25231188      -0.00000000      -0.00000000 </v>
   <v>       0.00000000    -156.25250424       0.00000000 </v>
   <v>       0.00000000       0.00000000    -156.25250424 </v>
  </varray>
  <energy>
   <i name="e_fr_energy">   -368.33236818 </i>
   <i name="e_wo_entrp">   -368.29574055 </i>
   <i name="e_0_energy">     -0.10988288 </i>
  </energy>
  <kpoints>
   <generation param="Gamma">
    <v type="int" name="divisions">       5        5        5 </v>
    <v name="usershift">      0.00000000       0.00000000       0.00000000 </v>
    <v name="genvec1">      0.20000000       0.00000000       0.00000000 </v>
    <v name="genvec2">      0.00000000       0.20000000       0.00000000 </v>
    <v name="genvec3">      0.00000000       0.00000000       0.20000000 </v>
    <v name="shift">      0.00000000       0.00000000       0.00000000 </v>
   </generation>
   <varray name="kpointlist" >
    <v>       0.00000000       0.00000000       0.00000000 </v>
    <v>       0.20000000       0.00000000       0.00000000 </v>
    <v>       0.40000000       0.00000000       0.00000000 </v>
    <v>       0.20000000       0.20000000       0.00000000 </v>
    <v>       0.40000000       0.20000000       0.00000000 </v>
    <v>      -0.40000000       0.20000000       0.00000000 </v>
    <v>      -0.20000000       0.20000000       0.00000000 </v>
    <v>       0.40000000       0.40000000       0.00000000 </v>
    <v>      -0.40000000       0.40000000       0.00000000 </v>
    <v>       0.00000000       0.20000000       0.20000000 </v>
    <v>       0.40000000       0.20000000       0.20000000 </v>
    <v>      -0.40000000       0.20000000       0.20000000 </v>
    <v>      -0.20000000       0.20000000       0.20000000 </v>
    <v>      -0.40000000       0.40000000       0.20000000 </v>
    <v>      -0.20000000       0.40000000       0.20000000 </v>
    <v>       0.40000000      -0.40000000       0.20000000 </v>
    <v>       0.00000000       0.40000000       0.40000000 </v>
    <v>      -0.20000000       0.40000000       0.40000000 </v>
   </varray>
   <varray name="weights" >
    <v>       0.00800000 </v>
    <v>       0.06400000 </v>
    <v>       0.06400000 </v>
    <v>       0.03200000 </v>
    <v>       0.12800000 </v>
    <v>       0.12800000 </v>
    <v>       0.06400000 </v>
    <v>       0.03200000 </v>
    <v>       0.06400000 </v>
    <v>       0.01600000 </v>
    <v>       0.03200000 </v>
    <v>       0.06400000 </v>
    <v>       0.06400000 </v>
    <v>       0.06400000 </v>
    <v>       0.06400000 </v>
    <v>       0.06400000 </v>
    <v>       0.01600000 </v>
    <v>       0.03200000 </v>
   </varray>
  </kpoints>
  <time name="totalsc">16804.5616798.52</time>
 </calculation>
 <calculation>
  <scstep>
   <time name="dav"> 1317.94 1316.87</time>
   <time name="total"> 1362.05 1360.93</time>
   <energy>
    <i name="alphaZ">   9846.09864404 </i>
    <i name="ewald">-153430.88980221 </i>
    <i name="hartreedc"> -59493.15042354 </i>
    <i name="XCdc">   5628.20838116 </i>
    <i name="pawpsdc"> 172164.77629441 </i>
    <i name="pawaedc">-181212.56864619 </i>
    <i name="eentropy">     -0.10981956 </i>
    <i name="bandstr"> -17883.72667653 </i>
    <i name="atom"> 224013.29143063 </i>
    <i name="e_fr_energy">   -368.07061779 </i>
    <i name="e_wo_entrp">   -367.96079823 </i>
    <i name="e_0_energy">   -368.03401127 </i>
   </energy>
  </scstep>
  <scstep>
   <time name="dav"> 1080.85 1079.96</time>
   <time name="total"> 1125.82 1124.91</time>
   <energy>
    <i name="e_fr_energy">   -368.34410884 </i>
    <i name="e_wo_entrp">   -368.23486322 </i>
    <i name="e_0_energy">   -368.30769363 </i>
   </energy>
  </scstep>
  <scstep>
   <time name="dav"> 1201.19 1200.21</time>
   <time name="total"> 1245.84 1244.83</time>
   <energy>
    <i name="e_fr_energy">   -368.33531197 </i>
    <i name="e_wo_entrp">   -368.22541536 </i>
    <i name="e_0_energy">   -368.29867977 </i>
   </energy>
  </scstep>
  <scstep>
   <time name="dav"> 1249.30 1248.28</time>
   <time name="total"> 1293.96 1292.91</time>
   <energy>
    <i name="e_fr_energy">   -368.33977987 </i>
    <i name="e_wo_entrp">   -368.23011889 </i>
    <i name="e_0_energy">   -368.30322621 </i>
   </energy>
  </scstep>
  <scstep>
   <time name="dav"> 1110.12 1109.21</time>
   <time name="total"> 1154.81 1153.87</time>
   <energy>
    <i name="e_fr_energy">   -368.33301925 </i>
    <i name="e_wo_entrp">   -368.22313742 </i>
    <i name="e_0_energy">   -368.29639198 </i>
   </energy>
  </scstep>
  <scstep>
   <time name="dav"> 1195.03 1194.05</time>
   <time name="total"> 1239.81 1238.80</time>
   <energy>
    <i name="e_fr_energy">   -368.33286794 </i>
    <i name="e_wo_entrp">   -368.22297922 </i>
    <i name="e_0_energy">   -368.29623836 </i>
   </energy>
  </scstep>
  <scstep>
   <time name="dav"> 1126.61 1125.69</time>
   <time name="total"> 1171.16 1170.21</time>
   <energy>
    <i name="e_fr_energy">   -368.33275410 </i>
    <i name="e_wo_entrp">   -368.22286687 </i>
    <i name="e_0_energy">   -368.29612502 </i>
   </energy>
  </scstep>
  <scstep>
   <time name="dav"> 1135.05 1134.13</time>
   <time name="total"> 1179.58 1178.62</time>
   <energy>
    <i name="e_fr_energy">   -368.33261151 </i>
    <i name="e_wo_entrp">   -368.22272512 </i>
    <i name="e_0_energy">   -368.29598271 </i>
   </energy>
  </scstep>
  <scstep>
   <time name="dav"> 1137.82 1136.89</time>
   <time name="total"> 1182.32 1181.36</time>
   <energy>
    <i name="e_fr_energy">   -368.33270922 </i>
    <i name="e_wo_entrp">   -368.22282407 </i>
    <i name="e_0_energy">   -368.29608084 </i>
   </energy>
  </scstep>
  <scstep>
   <time name="dav"> 1247.63 1246.62</time>
   <time name="total"> 1292.01 1290.96</time>
   <energy>
    <i name="e_fr_energy">   -368.33245195 </i>
    <i name="e_wo_entrp">   -368.22257124 </i>
    <i name="e_0_energy">   -368.29582505 </i>
   </energy>
  </scstep>
  <scstep>
   <time name="dav"> 1253.86 1252.84</time>
   <time name="total"> 1298.22 1297.17</time>
   <energy>
    <i name="e_fr_energy">   -368.33236443 </i>
    <i name="e_wo_entrp">   -368.22247941 </i>
    <i name="e_0_energy">   -368.29573609 </i>
   </energy>
  </scstep>
  <scstep>
   <time name="dav"> 1357.92 1356.99</time>
   <time name="total"> 1401.68 1400.71</time>
   <energy>
    <i name="e_fr_energy">   -368.33237418 </i>
    <i name="e_wo_entrp">   -368.22249327 </i>
    <i name="e_0_energy">   -368.29574721 </i>
   </energy>
  </scstep>
  <scstep>
   <time name="dav"> 1076.93 1076.06</time>
   <time name="total"> 1120.05 1119.15</time>
   <energy>
    <i name="e_fr_energy">   -368.33236862 </i>
    <i name="e_wo_entrp">   -368.22248670 </i>
    <i name="e_0_energy">   -368.29574132 </i>
   </energy>
  </scstep>
  <scstep>
   <time name="dav">  799.05  798.43</time>
   <time name="total">  841.90  841.25</time>
   <energy>
    <i name="e_fr_energy">   -368.33236991 </i>
    <i name="e_wo_entrp">   -368.22248768 </i>
    <i name="e_0_energy">   -368.29574250 </i>
   </energy>
  </scstep>
  <scstep>
   <time name="dav">  705.29  704.71</time>
   <time name="total">  748.24  747.64</time>
   <energy>
    <i name="e_fr_energy">   -368.33236819 </i>
    <i name="e_wo_entrp">   -368.22248315 </i>
    <i name="e_0_energy">   -368.29573984 </i>
   </energy>
  </scstep>
  <scstep>
   <time name="dav">  639.40  638.88</time>
   <time name="total">  640.80  640.28</time>
   <energy>
    <i name="alphaZ">   9846.09864404 </i>
    <i name="ewald">-153430.88980221 </i>
    <i name="hartreedc"> -59493.10054353 </i>
    <i name="XCdc">   5628.20583392 </i>
    <i name="pawpsdc"> 172164.76839070 </i>
    <i name="pawaedc">-181212.56162446 </i>
    <i name="eentropy">     -0.10988378 </i>
    <i name="bandstr"> -17884.03481390 </i>
    <i name="atom"> 224013.29143063 </i>
    <i name="e_fr_energy">   -368.33236861 </i>
    <i name="e_wo_entrp">   -368.22248483 </i>
    <i name="e_0_energy">   -368.29574068 </i>
   </energy>
  </scstep>
  <structure>
   <crystal>
    <varray name="basis" >
     <v>       0.00000000       7.05000000       7.05000000 </v>
     <v>       7.05000000       0.00000000       7.05000000 </v>
     <v>       7.05000000       7.05000000       0.00000000 </v>
    </varray>
    <i name="volume">    700.80525000 </i>
    <varray name="rec_basis" >
     <v>      -0.07092199       0.07092199       0.07092199 </v>
     <v>       0.07092199      -0.07092199       0.07092199 </v>
     <v>       0.07092199       0.07092199      -0.07092199 </v>
    </varray>
   </crystal>
   <varray name="positions" >
    <v>       0.00106383      -0.00106383      -0.00106383 </v>
    <v>       0.00000000       0.00000000       0.25000000 </v>
    <v>       0.00000000       0.00000000       0.50000000 </v>
    <v>       0.00000000       0.00000000       0.75000000 </v>
    <v>       0.00000000       0.25000000       0.00000000 </v>
    <v>       0.00000000       0.25000000       0.25000000 </v>
    <v>       0.00000000       0.25000000       0.50000000 </v>
    <v>       0.00000000       0.25000000       0.75000000 </v>
    <v>       0.00000000       0.50000000       0.00000000 </v>
    <v>       0.00000000       0.50000000       0.25000000 </v>
    <v>       0.00000000       0.50000000       0.50000000 </v>
    <v>       0.00000000       0.50000000       0.75000000 </v>
    <v>       0.00000000       0.75000000       0.00000000 </v>
    <v>       0.00000000       0.75000000       0.25000000 </v>
    <v>       0.00000000       0.75000000       0.50000000 </v>
    <v>       0.00000000       0.75000000       0.75000000 </v>
    <v>       0.25000000       0.00000000       0.00000000 </v>
    <v>       0.25000000       0.00000000       0.25000000 </v>
    <v>       0.25000000       0.00000000       0.50000000 </v>
    <v>       0.25000000       0.00000000       0.75000000 </v>
    <v>       0.25000000       0.25000000       0.00000000 </v>
    <v>       0.25000000       0.25000000       0.25000000 </v>
    <v>       0.25000000       0.25000000       0.50000000 </v>
    <v>       0.25000000       0.25000000       0.75000000 </v>
    <v>       0.25000000       0.50000000       0.00000000 </v>
    <v>       0.25000000       0.50000000       0.25000000 </v>
    <v>       0.25000000       0.50000000       0.50000000 </v>
    <v>       0.25000000       0.50000000       0.75000000 </v>
    <v>       0.25000000       0.75000000       0.00000000 </v>
    <v>       0.25000000       0.75000000       0.25000000 </v>
    <v>       0.25000000       0.75000000       0.50000000 </v>
    <v>       0.25000000       0.75000000       0.75000000 </v>
    <v>       0.50000000       0.00000000       0.00000000 </v>
    <v>       0.50000000       0.00000000       0.25000000 </v>
    <v>       0.50000000       0.00000000       0.50000000 </v>
    <v>       0.50000000       0.00000000       0.75000000 </v>
    <v>       0.50000000       0.25000000       0.00000000 </v>
    <v>       0.50000000       0.25000000       0.25000000 </v>
    <v>       0.50000000       0.25000000       0.50000000 </v>
    <v>       0.50000000       0.25000000       0.75000000 </v>
    <v>       0.50000000       0.50000000       0.00000000 </v>
    <v>       0.50000000       0.50000000       0.25000000 </v>
    <v>       0.50000000       0.50000000       0.50000000 </v>
    <v>       0.50000000       0.50000000       0.75000000 </v>
    <v>       0.50000000       0.75000000       0.00000000 </v>
    <v>       0.50000000       0.75000000       0.25000000 </v>
    <v>       0.50000000       0.75000000       0.50000000 </v>
    <v>       0.50000000       0.75000000       0.75000000 </v>
    <v>       0.75000000       0.00000000       0.00000000 </v>
    <v>       0.75000000       0.00000000       0.25000000 </v>
    <v>       0.75000000       0.00000000       0.50000000 </v>
    <v>       0.75000000       0.00000000       0.75000000 </v>
    <v>       0.75000000       0.25000000       0.00000000 </v>
    <v>       0.75000000       0.25000000       0.25000000 </v>
    <v>       0.75000000       0.25000000       0.50000000 </v>
    <v>       0.75000000       0.25000000       0.75000000 </v>
    <v>       0.75000000       0.50000000       0.00000000 </v>
    <v>       0.75000000       0.50000000       0.25000000 </v>
    <v>       0.75000000       0.50000000       0.50000000 </v>
    <v>       0.75000000       0.50000000       0.75000000 </v>
    <v>       0.75000000       0.75000000       0.00000000 </v>
    <v>       0.75000000       0.75000000       0.25000000 </v>
    <v>       0.75000000       0.75000000       0.50000000 </v>
    <v>       0.75000000       0.75000000       0.75000000 </v>
   </varray>
  </structure>
  <varray name="forces" >
   <v>       0.13558074      -0.00000000      -0.00000000 </v>
   <v>      -0.01574858      -0.01800701      -0.00000000 </v>
   <v>       0.00008022       0.00022671      -0.00000000 </v>
   <v>      -0.01640134      -0.01888331      -0.00000000 </v>
   <v>      -0.01574858      -0.00000000      -0.01800701 </v>
   <v>      -0.00109555      -0.00065442      -0.00065442 </v>
   <v>      -0.00015207      -0.00068797       0.00039643 </v>
   <v>       0.00063009       0.00013376      -0.00013376 </v>
   <v>       0.00008022      -0.00000000       0.00022671 </v>
   <v>      -0.00015207       0.00039643      -0.00068797 </v>
   <v>       0.00003287      -0.00000000      -0.00000000 </v>
   <v>      -0.00015527       0.00037934      -0.00064821 </v>
   <v>      -0.01640134      -0.00000000      -0.01888331 </v>
   <v>       0.00063009      -0.00013376       0.00013376 </v>
   <v>      -0.00015527      -0.00064821       0.00037934 </v>
   <v>      -0.00114348      -0.00066850      -0.00066850 </v>
   <v>       0.00063009      -0.00013376      -0.00013376 </v>
   <v>      -0.00015527      -0.00064821      -0.00037934 </v>
   <v>      -0.00114348      -0.00066850       0.00066850 </v>
   <v>      -0.01640134      -0.00000000       0.01888331 </v>
   <v>      -0.00015527      -0.00037934      -0.00064821 </v>
   <v>       0.00004118      -0.00000000      -0.00000000 </v>
   <v>      -0.00015207      -0.00039643       0.00068797 </v>
   <v>       0.00068932      -0.00000000       0.00001360 </v>
   <v>      -0.00114348       0.00066850      -0.00066850 </v>
   <v>      -0.00015207       0.00068797      -0.00039643 </v>
   <v>       0.00043871      -0.00003457      -0.00003457 </v>
   <v>       0.00007167      -0.00000000       0.00008632 </v>
   <v>      -0.01640134       0.01888331      -0.00000000 </v>
   <v>       0.00068932       0.00001360      -0.00000000 </v>
   <v>       0.00007167       0.00008632      -0.00000000 </v>
   <v>      -0.00195221      -0.00000000      -0.00000000 </v>
   <v>       0.00003287      -0.00000000      -0.00000000 </v>
   <v>      -0.00015527       0.00037934       0.00064821 </v>
   <v>       0.00008022      -0.00000000      -0.00022671 </v>
   <v>      -0.00015207       0.00039643       0.00068797 </v>
   <v>      -0.00015527       0.00064821       0.00037934 </v>
   <v>      -0.00109555       0.00065442       0.00065442 </v>
   <v>      -0.00000133      -0.00000000      -0.00015739 </v>
   <v>       0.00043871       0.00003457      -0.00003457 </v>
   <v>       0.00008022      -0.00022671      -0.00000000 </v>
   <v>      -0.00000133      -0.00015739      -0.00000000 </v>
   <v>       0.00059780      -0.00000000      -0.00000000 </v>
   <v>       0.00007167      -0.00008632      -0.00000000 </v>
   <v>      -0.00015207       0.00068797       0.00039643 </v>
   <v>       0.00043871      -0.00003457       0.00003457 </v>
   <v>       0.00007167      -0.00000000      -0.00008632 </v>
   <v>      -0.00114348       0.00066850       0.00066850 </v>
   <v>       0.00063009       0.00013376       0.00013376 </v>
   <v>      -0.01574858      -0.00000000       0.01800701 </v>
   <v>      -0.00109555      -0.00065442       0.00065442 </v>
   <v>      -0.00015207      -0.00068797      -0.00039643 </v>
   <v>      -0.01574858       0.01800701      -0.00000000 </v>
   <v>      -0.00199467      -0.00000000      -0.00000000 </v>
   <v>      -0.00000133       0.00015739      -0.00000000 </v>
   <v>       0.00068932      -0.00001360      -0.00000000 </v>
   <v>      -0.00109555       0.00065442      -0.00065442 </v>
   <v>      -0.00000133      -0.00000000       0.00015739 </v>
   <v>       0.00043871       0.00003457       0.00003457 </v>
   <v>      -0.00015527       0.00064821      -0.00037934 </v>
   <v>      -0.00015207      -0.00039643      -0.00068797 </v>
   <v>       0.00068932      -0.00000000      -0.00001360 </v>
   <v>      -0.00015527      -0.00037934       0.00064821 </v>
   <v>       0.00004118      -0.00000000      -0.00000000 </v>
  </varray>
  <varray name="stress" >
   <v>    -156.21147577       0.00000000       0.00000000 </v>
   <v>       0.00000000    -156.20372201       0.00000000 </v>
   <v>       0.00000000       0.00000000    -156.20372201 </v>
  </varray>
  <energy>
   <i name="e_fr_energy">   -368.33236861 </i>
   <i name="e_wo_entrp">   -368.29574068 </i>
   <i name="e_0_energy">     -0.10988378 </i>
  </energy>
  <dynmat>
   <varray name="hessian" >
    <v>      -0.15290611       0.00000000       0.00000000       0.01797059       0.02045203       0.00000000      -0.00014717      -0.00036104       0.00000000       0.01797059       0.02045203      -0.00000000       0.01797059       0.00000000       0.02045203       0.00129210       0.00074890       0.00074890       0.00020803       0.00074890      -0.00042708      -0.00053249      -0.00000000      -0.00000000      -0.00014717       0.00000000      -0.00036104       0.00020803      -0.00042708       0.00074890      -0.00002146       0.00000000       0.00000000       0.00020803      -0.00042708       0.00074890       0.01797059      -0.00000000       0.02045203      -0.00053249      -0.00000000      -0.00000000       0.00020803       0.00074890      -0.00042708       0.00129210       0.00074890       0.00074890      -0.00053249      -0.00000000      -0.00000000       0.00020803       0.00074890       0.00042708       0.00129210       0.00074890      -0.00074890       0.01797059      -0.00000000      -0.02045203       0.00020803       0.00042708       0.00074890      -0.00004322       0.00000000       0.00000000       0.00020803       0.00042708      -0.00074890      -0.00073417       0.00000000       0.00000000       0.00129210      -0.00074890       0.00074890       0.00020803      -0.00074890       0.00042708      -0.00048615      -0.00000000      -0.00000000      -0.00005654      -0.00000000      -0.00016768       0.01797059      -0.02045203      -0.00000000      -0.00073417       0.00000000       0.00000000      -0.00005654      -0.00016768      -0.00000000       0.00216092       0.00000000       0.00000000      -0.00002146       0.00000000       0.00000000       0.00020803      -0.00042708      -0.00074890      -0.00014717       0.00000000       0.00036104       0.00020803      -0.00042708      -0.00074890       0.00020803      -0.00074890      -0.00042708       0.00129210      -0.00074890      -0.00074890      -0.00005654       0.00000000       0.00016768      -0.00048615       0.00000000      -0.00000000      -0.00014717       0.00036104       0.00000000      -0.00005654       0.00016768       0.00000000      -0.00066421       0.00000000       0.00000000      -0.00005654       0.00016768      -0.00000000       0.00020803      -0.00074890      -0.00042708      -0.00048615      -0.00000000      -0.00000000      -0.00005654      -0.00000000       0.00016768       0.00129210      -0.00074890      -0.00074890      -0.00053249       0.00000000       0.00000000       0.01797059      -0.00000000      -0.02045203       0.00129210       0.00074890      -0.00074890       0.00020803       0.00074890       0.00042708       0.01797059      -0.02045203      -0.00000000       0.00216092      -0.00000000      -0.00000000      -0.00005654      -0.00016768       0.00000000      -0.00073417      -0.00000000       0.00000000       0.00129210      -0.00074890       0.00074890      -0.00005654      -0.00000000      -0.00016768      -0.00048615       0.00000000       0.00000000       0.00020803      -0.00074890       0.00042708       0.00020803       0.00042708       0.00074890      -0.00073417       0.00000000      -0.00000000       0.00020803       0.00042708      -0.00074890      -0.00004322       0.00000000       0.00000000 </v>
    <v>       0.00000000      -0.15290611       0.00000000       0.02045203       0.01797059       0.00000000      -0.00036104      -0.00014717       0.00000000       0.02045203       0.01797059      -0.00000000      -0.00000000      -0.00053249      -0.00000000       0.00074890       0.00020803       0.00042708       0.00074890       0.00129210      -0.00074890      -0.00000000       0.01797059      -0.02045203       0.00000000      -0.00002146       0.00000000      -0.00042708       0.00020803      -0.00074890       0.00000000      -0.00014717       0.00036104      -0.00042708       0.00020803      -0.00074890       0.00000000      -0.00053249       0.00000000      -0.00000000       0.01797059      -0.02045203       0.00074890       0.00129210      -0.00074890       0.00074890       0.00020803       0.00042708       0.00000000       0.01797059       0.02045203       0.00074890       0.00129210       0.00074890       0.00074890       0.00020803      -0.00042708      -0.00000000      -0.00053249      -0.00000000       0.00042708       0.00020803       0.00074890       0.00000000      -0.00004322       0.00000000       0.00042708       0.00020803      -0.00074890       0.00000000      -0.00073417       0.00000000      -0.00074890       0.00020803      -0.00042708      -0.00074890       0.00129210      -0.00074890       0.00000000      -0.00005654       0.00016768      -0.00000000      -0.00048615      -0.00000000      -0.02045203       0.01797059      -0.00000000      -0.00000000       0.00216092      -0.00000000      -0.00016768      -0.00005654      -0.00000000      -0.00000000      -0.00073417       0.00000000       0.00000000      -0.00014717      -0.00036104      -0.00042708       0.00020803       0.00074890       0.00000000      -0.00002146       0.00000000      -0.00042708       0.00020803       0.00074890      -0.00074890       0.00129210       0.00074890      -0.00074890       0.00020803       0.00042708      -0.00000000      -0.00048615      -0.00000000      -0.00000000      -0.00005654      -0.00016768       0.00036104      -0.00014717       0.00000000       0.00016768      -0.00005654       0.00000000       0.00000000      -0.00066421       0.00000000       0.00016768      -0.00005654      -0.00000000      -0.00074890       0.00129210       0.00074890       0.00000000      -0.00005654      -0.00016768       0.00000000      -0.00048615       0.00000000      -0.00074890       0.00020803       0.00042708      -0.00000000       0.01797059       0.02045203      -0.00000000      -0.00053249      -0.00000000       0.00074890       0.00020803      -0.00042708       0.00074890       0.00129210       0.00074890      -0.02045203       0.01797059      -0.00000000       0.00000000      -0.00073417       0.00000000      -0.00016768      -0.00005654      -0.00000000       0.00000000       0.00216092       0.00000000      -0.00074890       0.00020803      -0.00042708      -0.00000000      -0.00048615       0.00000000      -0.00000000      -0.00005654       0.00016768      -0.00074890       0.00129210      -0.00074890       0.00042708       0.00020803       0.00074890       0.00000000      -0.00073417      -0.00000000       0.00042708       0.00020803      -0.00074890       0.00000000      -0.00004322       0.00000000 </v>
[...]
       <r>    23.2479     0.0000   648.0000 </r>
       <r>    23.5334     0.0000   648.0000 </r>
       <r>    23.8189     0.0000   648.0000 </r>
       <r>    24.1045     0.0000   648.0000 </r>
       <r>    24.3900     0.0000   648.0000 </r>
       <r>    24.6756     0.0000   648.0000 </r>
       <r>    24.9611     0.0000   648.0000 </r>
       <r>    25.2467     0.0000   648.0000 </r>
       <r>    25.5322     0.0000   648.0000 </r>
      </set>
      <set comment="spin 2">
       <r>   -60.1322     0.0000     0.0000 </r>
       <r>   -59.8466     0.0000     0.0000 </r>
       <r>   -59.5611     0.0000     0.0000 </r>
       <r>   -59.2755     0.0000     0.0000 </r>
       <r>   -58.9900     0.0000     0.0000 </r>
       <r>   -58.7044     0.0000     0.0000 </r>
       <r>   -58.4189     0.0000     0.0000 </r>
       <r>   -58.1333     0.0000     0.0000 </r>
       <r>   -57.8478     0.0000     0.0000 </r>
       <r>   -57.5622     0.0000     0.0000 </r>
       <r>   -57.2767    -0.0000    -0.0000 </r>
       <r>   -56.9912    -0.0000    -0.0000 </r>
       <r>   -56.7056    -0.0000    -0.0000 </r>
       <r>   -56.4201    -0.0000    -0.0000 </r>
       <r>   -56.1345    -0.0002    -0.0000 </r>
       <r>   -55.8490    -0.5567    -0.1590 </r>
       <r>   -55.5634   -14.9375    -4.4244 </r>
       <r>   -55.2779   402.7090   110.5684 </r>
       <r>   -54.9923   301.9944   196.8023 </r>
       <r>   -54.7068   -16.6507   192.0477 </r>
       <r>   -54.4212    -0.1670   192.0000 </r>
       <r>   -54.1357    -0.0000   192.0000 </r>
       <r>   -53.8501    -0.0000   192.0000 </r>
       <r>   -53.5646     0.0000   192.0000 </r>
       <r>   -53.2790     0.0000   192.0000 </r>
       <r>   -52.9935     0.0000   192.0000 </r>
       <r>   -52.7079     0.0000   192.0000 </r>
       <r>   -52.4224     0.0000   192.0000 </r>
       <r>   -52.1368     0.0000   192.0000 </r>
       <r>   -51.8513     0.0000   192.0000 </r>
       <r>   -51.5657     0.0000   192.0000 </r>
       <r>   -51.2802     0.0000   192.0000 </r>
       <r>   -50.9946     0.0000   192.0000 </r>
       <r>   -50.7091     0.0000   192.0000 </r>
       <r>   -50.4235     0.0000   192.0000 </r>
       <r>   -50.1380     0.0000   192.0000 </r>
       <r>   -49.8525     0.0000   192.0000 </r>
       <r>   -49.5669     0.0000   192.0000 </r>
       <r>   -49.2814     0.0000   192.0000 </r>
       <r>   -48.9958     0.0000   192.0000 </r>
       <r>   -48.7103     0.0000   192.0000 </r>
       <r>   -48.4247     0.0000   192.0000 </r>
       <r>   -48.1392     0.0000   192.0000 </r>
       <r>   -47.8536     0.0000   192.0000 </r>
       <r>   -47.5681     0.0000   192.0000 </r>
       <r>   -47.2825     0.0000   192.0000 </r>
       <r>   -46.9970     0.0000   192.0000 </r>
       <r>   -46.7114     0.0000   192.0000 </r>
       <r>   -46.4259     0.0000   192.0000 </r>
       <r>   -46.1403     0.0000   192.0000 </r>
       <r>   -45.8548     0.0000   192.0000 </r>
       <r>   -45.5692     0.0000   192.0000 </r>
       <r>   -45.2837     0.0000   192.0000 </r>
       <r>   -44.9981     0.0000   192.0000 </r>
       <r>   -44.7126     0.0000   192.0000 </r>
       <r>   -44.4270     0.0000   192.0000 </r>
       <r>   -44.1415     0.0000   192.0000 </r>
       <r>   -43.8559     0.0000   192.0000 </r>
       <r>   -43.5704     0.0000   192.0000 </r>
       <r>   -43.2848     0.0000   192.0000 </r>
       <r>   -42.9993     0.0000   192.0000 </r>
       <r>   -42.7137     0.0000   192.0000 </r>
       <r>   -42.4282     0.0000   192.0000 </r>
       <r>   -42.1427     0.0000   192.0000 </r>
       <r>   -41.8571     0.0000   192.0000 </r>
       <r>   -41.5716     0.0000   192.0000 </r>
       <r>   -41.2860     0.0000   192.0000 </r>
       <r>   -41.0005     0.0000   192.0000 </r>
       <r>   -40.7149     0.0000   192.0000 </r>
       <r>   -40.4294     0.0000   192.0000 </r>
       <r>   -40.1438     0.0000   192.0000 </r>
       <r>   -39.8583     0.0000   192.0000 </r>
       <r>   -39.5727     0.0000   192.0000 </r>
       <r>   -39.2872     0.0000   192.0000 </r>
       <r>   -39.0016     0.0000   192.0000 </r>
       <r>   -38.7161     0.0000   192.0000 </r>
       <r>   -38.4305     0.0000   192.0000 </r>
       <r>   -38.1450     0.0000   192.0000 </r>
       <r>   -37.8594     0.0000   192.0000 </r>
       <r>   -37.5739     0.0000   192.0000 </r>
       <r>   -37.2883     0.0000   192.0000 </r>
       <r>   -37.0028     0.0000   192.0000 </r>
       <r>   -36.7172     0.0000   192.0000 </r>
       <r>   -36.4317     0.0000   192.0000 </r>
       <r>   -36.1461     0.0000   192.0000 </r>
       <r>   -35.8606     0.0000   192.0000 </r>
       <r>   -35.5750     0.0000   192.0000 </r>
       <r>   -35.2895     0.0000   192.0000 </r>
       <r>   -35.0040     0.0000   192.0000 </r>
       <r>   -34.7184     0.0000   192.0000 </r>
       <r>   -34.4329     0.0000   192.0000 </r>
       <r>   -34.1473     0.0000   192.0000 </r>
       <r>   -33.8618     0.0000   192.0000 </r>
       <r>   -33.5762     0.0000   192.0000 </r>
       <r>   -33.2907     0.0000   192.0000 </r>
       <r>   -33.0051     0.0000   192.0000 </r>
       <r>   -32.7196     0.0000   192.0000 </r>
       <r>   -32.4340     0.0000   192.0000 </r>
       <r>   -32.1485     0.0000   192.0000 </r>
       <r>   -31.8629     0.0000   192.0000 </r>
       <r>   -31.5774     0.0000   192.0000 </r>
       <r>   -31.2918     0.0000   192.0000 </r>
       <r>   -31.0063     0.0000   192.0000 </r>
       <r>   -30.7207     0.0000   192.0000 </r>
       <r>   -30.4352     0.0000   192.0000 </r>
       <r>   -30.1496     0.0000   192.0000 </r>
       <r>   -29.8641     0.0000   192.0000 </r>
       <r>   -29.5785     0.0000   192.0000 </r>
       <r>   -29.2930     0.0000   192.0000 </r>
       <r>   -29.0074     0.0000   192.0000 </r>
       <r>   -28.7219     0.0000   192.0000 </r>
       <r>   -28.4363     0.0000   192.0000 </r>
       <r>   -28.1508     0.0000   192.0000 </r>
       <r>   -27.8653     0.0000   192.0000 </r>
       <r>   -27.5797     0.0000   192.0000 </r>
       <r>   -27.2942     0.0000   192.0000 </r>
       <r>   -27.0086     0.0000   192.0000 </r>
       <r>   -26.7231     0.0000   192.0000 </r>
       <r>   -26.4375     0.0000   192.0000 </r>
       <r>   -26.1520     0.0000   192.0000 </r>
       <r>   -25.8664     0.0000   192.0000 </r>
       <r>   -25.5809     0.0000   192.0000 </r>
       <r>   -25.2953     0.0000   192.0000 </r>
       <r>   -25.0098     0.0000   192.0000 </r>
       <r>   -24.7242     0.0000   192.0000 </r>
       <r>   -24.4387     0.0000   192.0000 </r>
       <r>   -24.1531     0.0000   192.0000 </r>
       <r>   -23.8676     0.0000   192.0000 </r>
       <r>   -23.5820     0.0000   192.0000 </r>
       <r>   -23.2965     0.0000   192.0000 </r>
       <r>   -23.0109     0.0000   192.0000 </r>
       <r>   -22.7254     0.0000   192.0000 </r>
       <r>   -22.4398     0.0000   192.0000 </r>
       <r>   -22.1543     0.0000   192.0000 </r>
       <r>   -21.8687     0.0000   192.0000 </r>
       <r>   -21.5832     0.0000   192.0000 </r>
       <r>   -21.2976     0.0000   192.0000 </r>
       <r>   -21.0121     0.0000   192.0000 </r>
       <r>   -20.7265     0.0000   192.0000 </r>
       <r>   -20.4410     0.0000   192.0000 </r>
       <r>   -20.1555     0.0000   192.0000 </r>
       <r>   -19.8699     0.0000   192.0000 </r>
       <r>   -19.5844     0.0000   192.0000 </r>
       <r>   -19.2988     0.0000   192.0000 </r>
       <r>   -19.0133     0.0000   192.0000 </r>
       <r>   -18.7277     0.0000   192.0000 </r>
       <r>   -18.4422     0.0000   192.0000 </r>
       <r>   -18.1566     0.0000   192.0000 </r>
       <r>   -17.8711     0.0000   192.0000 </r>
       <r>   -17.5855     0.0000   192.0000 </r>
       <r>   -17.3000     0.0000   192.0000 </r>
       <r>   -17.0144     0.0000   192.0000 </r>
       <r>   -16.7289     0.0000   192.0000 </r>
       <r>   -16.4433     0.0000   192.0000 </r>
       <r>   -16.1578     0.0000   192.0000 </r>
       <r>   -15.8722     0.0000   192.0000 </r>
       <r>   -15.5867     0.0000   192.0000 </r>
       <r>   -15.3011     0.0000   192.0000 </r>
       <r>   -15.0156     0.0000   192.0000 </r>
       <r>   -14.7300     0.0000   192.0000 </r>
       <r>   -14.4445     0.0000   192.0000 </r>
       <r>   -14.1589     0.0000   192.0000 </r>
       <r>   -13.8734     0.0000   192.0000 </r>
       <r>   -13.5878     0.0000   192.0000 </r>
       <r>   -13.3023     0.0000   192.0000 </r>
       <r>   -13.0168     0.0000   192.0000 </r>
       <r>   -12.7312     0.0000   192.0000 </r>
       <r>   -12.4457     0.0000   192.0000 </r>
       <r>   -12.1601     0.0000   192.0000 </r>
       <r>   -11.8746     0.0000   192.0000 </r>
       <r>   -11.5890     0.0000   192.0000 </r>
       <r>   -11.3035     0.0000   192.0000 </r>
       <r>   -11.0179     0.0000   192.0000 </r>
       <r>   -10.7324     0.0000   192.0000 </r>
       <r>   -10.4468     0.0000   192.0000 </r>
       <r>   -10.1613     0.0000   192.0000 </r>
       <r>    -9.8757     0.0000   192.0000 </r>
       <r>    -9.5902     0.0000   192.0000 </r>
       <r>    -9.3046     0.0000   192.0000 </r>
       <r>    -9.0191     0.0000   192.0000 </r>
       <r>    -8.7335     0.0000   192.0000 </r>
       <r>    -8.4480     0.0000   192.0000 </r>
       <r>    -8.1624     0.0000   192.0000 </r>
       <r>    -7.8769     0.0000   192.0000 </r>
       <r>    -7.5913     0.0000   192.0000 </r>
       <r>    -7.3058     0.0000   192.0000 </r>
       <r>    -7.0202     0.0000   192.0000 </r>
       <r>    -6.7347     0.0000   192.0000 </r>
       <r>    -6.4491     0.0000   192.0000 </r>
       <r>    -6.1636     0.0000   192.0000 </r>
       <r>    -5.8781     0.0000   192.0000 </r>
       <r>    -5.5925     0.0000   192.0000 </r>
       <r>    -5.3070     0.0000   192.0000 </r>
       <r>    -5.0214     0.0000   192.0000 </r>
       <r>    -4.7359     0.0000   192.0000 </r>
       <r>    -4.4503     0.0000   192.0000 </r>
       <r>    -4.1648     0.0000   192.0000 </r>
       <r>    -3.8792     0.0000   192.0000 </r>
       <r>    -3.5937     0.0000   192.0000 </r>
       <r>    -3.3081     0.0000   192.0000 </r>
       <r>    -3.0226    -0.0000   192.0000 </r>
       <r>    -2.7370    -0.0000   192.0000 </r>
       <r>    -2.4515    -0.0000   192.0000 </r>
       <r>    -2.1659    -0.0000   192.0000 </r>
       <r>    -1.8804    -0.0000   192.0000 </r>
       <r>    -1.5948    -0.0021   191.9994 </r>
       <r>    -1.3093     0.0013   191.9998 </r>
       <r>    -1.0237     0.5762   192.1643 </r>
       <r>    -0.7382     1.2975   192.5348 </r>
       <r>    -0.4526     1.9585   193.0940 </r>
       <r>    -0.1671     2.0418   193.6771 </r>
       <r>     0.1185     2.7681   194.4675 </r>
       <r>     0.4040     2.7538   195.2539 </r>
       <r>     0.6896     3.6222   196.2882 </r>
       <r>     0.9751     3.3265   197.2380 </r>
       <r>     1.2607     4.7623   198.5979 </r>
       <r>     1.5462     3.7342   199.6642 </r>
       <r>     1.8317     5.7364   201.3022 </r>
       <r>     2.1173     5.8715   202.9788 </r>
       <r>     2.4028     5.5109   204.5524 </r>
       <r>     2.6884     8.8641   207.0836 </r>
       <r>     2.9739     7.8880   209.3360 </r>
       <r>     3.2595    13.2650   213.1238 </r>
       <r>     3.5450    19.9532   218.8214 </r>
       <r>     3.8306    30.9085   227.6472 </r>
       <r>     4.1161    31.3048   236.5862 </r>
       <r>     4.4017    41.6463   248.4783 </r>
       <r>     4.6872    56.0082   264.4713 </r>
       <r>     4.9728    53.2926   279.6889 </r>
       <r>     5.2583    50.4873   294.1054 </r>
       <r>     5.5439    62.3839   311.9190 </r>
       <r>     5.8294    76.3133   333.7102 </r>
       <r>     6.1150    86.3317   358.3620 </r>
       <r>     6.4005    94.4746   385.3390 </r>
       <r>     6.6861    69.4097   405.1588 </r>
       <r>     6.9716    71.3029   425.5192 </r>
       <r>     7.2572    83.5325   449.3718 </r>
       <r>     7.5427    71.0611   469.6631 </r>
       <r>     7.8283    89.5647   495.2381 </r>
       <r>     8.1138   104.0067   524.9370 </r>
       <r>     8.3994    27.9111   532.9070 </r>
       <r>     8.6849     8.5977   535.3621 </r>
       <r>     8.9704    13.9604   539.3484 </r>
       <r>     9.2560     9.4299   542.0411 </r>
       <r>     9.5415    11.1495   545.2248 </r>
       <r>     9.8271     8.4707   547.6436 </r>
       <r>    10.1126    10.8872   550.7524 </r>
       <r>    10.3982     9.2552   553.3952 </r>
       <r>    10.6837     8.0352   555.6897 </r>
       <r>    10.9693     7.0761   557.7102 </r>
       <r>    11.2548    10.7548   560.7812 </r>
       <r>    11.5404     6.7072   562.6965 </r>
       <r>    11.8259     5.3452   564.2228 </r>
       <r>    12.1115     6.4846   566.0745 </r>
       <r>    12.3970     7.9887   568.3556 </r>
       <r>    12.6826     4.9031   569.7557 </r>
       <r>    12.9681     3.7995   570.8406 </r>
       <r>    13.2537     4.4664   572.1160 </r>
       <r>    13.5392     4.4526   573.3874 </r>
       <r>    13.8248     3.7390   574.4551 </r>
       <r>    14.1103     7.5395   576.6080 </r>
       <r>    14.3959    10.1981   579.5200 </r>
       <r>    14.6814    12.3298   583.0408 </r>
       <r>    14.9670     8.8446   585.5663 </r>
       <r>    15.2525     8.6168   588.0268 </r>
       <r>    15.5381     8.3892   590.4223 </r>
       <r>    15.8236     8.2841   592.7879 </r>
       <r>    16.1091     9.9444   595.6275 </r>
       <r>    16.3947     6.0051   597.3422 </r>
       <r>    16.6802     6.4443   599.1824 </r>
       <r>    16.9658     6.5567   601.0546 </r>
       <r>    17.2513     8.6348   603.5202 </r>
       <r>    17.5369    10.6181   606.5522 </r>
       <r>    17.8224     8.8722   609.0856 </r>
       <r>    18.1080    11.3304   612.3210 </r>
       <r>    18.3935    11.9071   615.7211 </r>
       <r>    18.6791     9.0869   618.3158 </r>
       <r>    18.9646    12.3530   621.8432 </r>
       <r>    19.2502    12.8259   625.5056 </r>
       <r>    19.5357    12.6735   629.1245 </r>
       <r>    19.8213    10.3696   632.0855 </r>
       <r>    20.1068    10.8618   635.1871 </r>
       <r>    20.3924    11.3968   638.4414 </r>
       <r>    20.6779    13.7117   642.3568 </r>
       <r>    20.9635    10.2410   645.2810 </r>
       <r>    21.2490     8.2029   647.6234 </r>
       <r>    21.5346     0.9478   647.8940 </r>
       <r>    21.8201     0.3786   648.0021 </r>
       <r>    22.1057    -0.0064   648.0003 </r>
       <r>    22.3912    -0.0011   648.0000 </r>
       <r>    22.6768    -0.0000   648.0000 </r>
       <r>    22.9623    -0.0000   648.0000 </r>
       <r>    23.2479     0.0000   648.0000 </r>
       <r>    23.5334     0.0000   648.0000 </r>
       <r>    23.8189     0.0000   648.0000 </r>
       <r>    24.1045     0.0000   648.0000 </r>
       <r>    24.3900     0.0000   648.0000 </r>
       <r>    24.6756     0.0000   648.0000 </r>
       <r>    24.9611     0.0000   648.0000 </r>
       <r>    25.2467     0.0000   648.0000 </r>
       <r>    25.5322     0.0000   648.0000 </r>
      </set>
     </set>
    </array>
   </total>
  </dos>
 </calculation>
 <structure name="finalpos" >
  <crystal>
   <varray name="basis" >
    <v>       0.00000000       7.05000000       7.05000000 </v>
    <v>       7.05000000       0.00000000       7.05000000 </v>
    <v>       7.05000000       7.05000000       0.00000000 </v>
   </varray>
   <i name="volume">    700.80525000 </i>
   <varray name="rec_basis" >
    <v>      -0.07092199       0.07092199       0.07092199 </v>
    <v>       0.07092199      -0.07092199       0.07092199 </v>
    <v>       0.07092199       0.07092199      -0.07092199 </v>
   </varray>
  </crystal>
  <varray name="positions" >
   <v>       0.00106383      -0.00106383      -0.00106383 </v>
   <v>       0.00000000       0.00000000       0.25000000 </v>
   <v>       0.00000000       0.00000000       0.50000000 </v>
   <v>       0.00000000       0.00000000       0.75000000 </v>
   <v>       0.00000000       0.25000000       0.00000000 </v>
   <v>       0.00000000       0.25000000       0.25000000 </v>
   <v>       0.00000000       0.25000000       0.50000000 </v>
   <v>       0.00000000       0.25000000       0.75000000 </v>
   <v>       0.00000000       0.50000000       0.00000000 </v>
   <v>       0.00000000       0.50000000       0.25000000 </v>
   <v>       0.00000000       0.50000000       0.50000000 </v>
   <v>       0.00000000       0.50000000       0.75000000 </v>
   <v>       0.00000000       0.75000000       0.00000000 </v>
   <v>       0.00000000       0.75000000       0.25000000 </v>
   <v>       0.00000000       0.75000000       0.50000000 </v>
   <v>       0.00000000       0.75000000       0.75000000 </v>
   <v>       0.25000000       0.00000000       0.00000000 </v>
   <v>       0.25000000       0.00000000       0.25000000 </v>
   <v>       0.25000000       0.00000000       0.50000000 </v>
   <v>       0.25000000       0.00000000       0.75000000 </v>
   <v>       0.25000000       0.25000000       0.00000000 </v>
   <v>       0.25000000       0.25000000       0.25000000 </v>
   <v>       0.25000000       0.25000000       0.50000000 </v>
   <v>       0.25000000       0.25000000       0.75000000 </v>
   <v>       0.25000000       0.50000000       0.00000000 </v>
   <v>       0.25000000       0.50000000       0.25000000 </v>
   <v>       0.25000000       0.50000000       0.50000000 </v>
   <v>       0.25000000       0.50000000       0.75000000 </v>
   <v>       0.25000000       0.75000000       0.00000000 </v>
   <v>       0.25000000       0.75000000       0.25000000 </v>
   <v>       0.25000000       0.75000000       0.50000000 </v>
   <v>       0.25000000       0.75000000       0.75000000 </v>
   <v>       0.50000000       0.00000000       0.00000000 </v>
   <v>       0.50000000       0.00000000       0.25000000 </v>
   <v>       0.50000000       0.00000000       0.50000000 </v>
   <v>       0.50000000       0.00000000       0.75000000 </v>
   <v>       0.50000000       0.25000000       0.00000000 </v>
   <v>       0.50000000       0.25000000       0.25000000 </v>
   <v>       0.50000000       0.25000000       0.50000000 </v>
   <v>       0.50000000       0.25000000       0.75000000 </v>
   <v>       0.50000000       0.50000000       0.00000000 </v>
   <v>       0.50000000       0.50000000       0.25000000 </v>
   <v>       0.50000000       0.50000000       0.50000000 </v>
   <v>       0.50000000       0.50000000       0.75000000 </v>
   <v>       0.50000000       0.75000000       0.00000000 </v>
   <v>       0.50000000       0.75000000       0.25000000 </v>
   <v>       0.50000000       0.75000000       0.50000000 </v>
   <v>       0.50000000       0.75000000       0.75000000 </v>
   <v>       0.75000000       0.00000000       0.00000000 </v>
   <v>       0.75000000       0.00000000       0.25000000 </v>
   <v>       0.75000000       0.00000000       0.50000000 </v>
   <v>       0.75000000       0.00000000       0.75000000 </v>
   <v>       0.75000000       0.25000000       0.00000000 </v>
   <v>       0.75000000       0.25000000       0.25000000 </v>
   <v>       0.75000000       0.25000000       0.50000000 </v>
   <v>       0.75000000       0.25000000       0.75000000 </v>
   <v>       0.75000000       0.50000000       0.00000000 </v>
   <v>       0.75000000       0.50000000       0.25000000 </v>
   <v>       0.75000000       0.50000000       0.50000000 </v>
   <v>       0.75000000       0.50000000       0.75000000 </v>
   <v>       0.75000000       0.75000000       0.00000000 </v>
   <v>       0.75000000       0.75000000       0.25000000 </v>
   <v>       0.75000000       0.75000000       0.50000000 </v>
   <v>       0.75000000       0.75000000       0.75000000 </v>
  </varray>
 </structure>
</modeling>
