       N       E                     dE             d eps       ncg     rms          rms(c)
DAV:   1     0.152336338800E+05    0.15234E+05   -0.61669E+05 11744   0.212E+03
DAV:   2     0.957946839418E+03   -0.14276E+05   -0.13894E+05 10368   0.688E+02
DAV:   3    -0.342014405106E+03   -0.13000E+04   -0.10833E+04 10576   0.225E+02
DAV:   4    -0.418392438334E+03   -0.76378E+02   -0.73758E+02 11128   0.540E+01
DAV:   5    -0.419743282302E+03   -0.13508E+01   -0.13488E+01 11032   0.710E+00    0.675E+01
DAV:   6    -0.401685913936E+03    0.18057E+02   -0.69070E+02 10872   0.764E+01    0.614E+01
DAV:   7    -0.359032370121E+03    0.42654E+02   -0.16300E+02 10800   0.372E+01    0.616E+00
DAV:   8    -0.359258162776E+03   -0.22579E+00   -0.18224E+00 10896   0.278E+00    0.332E+00
DAV:   9    -0.359144568278E+03    0.11359E+00   -0.34834E-01 11192   0.106E+00    0.833E-01
DAV:  10    -0.359151231836E+03   -0.66636E-02   -0.17555E-02 11680   0.258E-01    0.362E-01
DAV:  11    -0.359154937923E+03   -0.37061E-02   -0.89150E-03 11008   0.217E-01    0.139E-01
DAV:  12    -0.359155010067E+03   -0.72144E-04   -0.93603E-04 11312   0.687E-02    0.247E-02
DAV:  13    -0.359155010675E+03   -0.60830E-06   -0.62363E-05 11496   0.186E-02    0.201E-02
DAV:  14    -0.359154992590E+03    0.18085E-04   -0.62023E-06  8152   0.570E-03    0.106E-02
DAV:  15    -0.359154984756E+03    0.78347E-05   -0.32564E-06  7480   0.505E-03    0.115E-03
DAV:  16    -0.359154985225E+03   -0.46968E-06   -0.17024E-07  5456   0.101E-03
   1 F= -.35915499E+03 E0= -.35912365E+03  d E =-.940204E-01  mag=    46.0276
 Linear response reoptimize wavefunctions
DAV:   1    -0.359154985674E+03   -0.44866E-06   -0.21430E-08  5816   0.444E-04
DAV:   2    -0.359154985674E+03   -0.52387E-09   -0.35033E-09  5512   0.231E-04
DAV:   3    -0.359154985675E+03   -0.52387E-09   -0.49091E-10  5496   0.145E-04
 Linear response DOF=           1
 Linear response progress:
  Degree of freedom:   1/  1
       N       E                     dE             d eps       ncg     rms          rms(c)
RMM:   1    -0.134096260127E+01   -0.13410E+01   -0.44614E+02 16759   0.107E+02
RMM:   2    -0.160375730601E+01   -0.26279E+00   -0.11416E-01 24525   0.642E-01    0.396E-01
RMM:   3    -0.160298566391E+01    0.77164E-03   -0.22893E-03 26437   0.843E-02    0.672E-01
RMM:   4    -0.160367484914E+01   -0.68919E-03   -0.36321E-03 21086   0.112E-01    0.110E+00
RMM:   5    -0.160264007437E+01    0.10348E-02   -0.12601E-03 17892   0.711E-02    0.422E-01
RMM:   6    -0.160280017155E+01   -0.16010E-03   -0.16526E-04 18059   0.345E-02    0.981E-02
RMM:   7    -0.160308176762E+01   -0.28160E-03    0.29455E-04 22879   0.274E-02    0.308E-01
RMM:   8    -0.160259509094E+01    0.48668E-03   -0.88395E-05 18098   0.234E-02    0.636E-02
RMM:   9    -0.160272785975E+01   -0.13277E-03   -0.38541E-05 24634   0.101E-02    0.677E-02
RMM:  10    -0.160233422872E+01    0.39363E-03   -0.70639E-05 25189   0.719E-03    0.231E-02
RMM:  11    -0.160287260011E+01   -0.53837E-03   -0.28095E-05 28408   0.434E-03    0.252E-02
RMM:  12    -0.160224004110E+01    0.63256E-03   -0.62348E-05 26675   0.420E-03    0.211E-02
RMM:  13    -0.160250905465E+01   -0.26901E-03   -0.63830E-05 26508   0.384E-03    0.612E-03
RMM:  14    -0.160255958223E+01   -0.50528E-04   -0.75150E-05 31880   0.295E-03    0.113E-02
RMM:  15    -0.160249322630E+01    0.66356E-04   -0.86327E-05 32270   0.281E-03    0.168E-03
RMM:  16    -0.160247418830E+01    0.19038E-04   -0.66127E-05 33717   0.257E-03    0.615E-03
RMM:  17    -0.160248486220E+01   -0.10674E-04   -0.68052E-05 33900   0.251E-03    0.169E-03
RMM:  18    -0.160247899114E+01    0.58711E-05   -0.35948E-05 35222   0.238E-03    0.839E-04
 Linear response finished
