 vasp.5.4.1 05Feb16 (build Oct 12 2016 17:31:35) complex                        
  
 executed on           IFC91_ompi date 2020.09.09  04:10:24
 running on    8 total cores
 distrk:  each k-point on    8 cores,    1 groups
 distr:  one band on NCORES_PER_BAND=   1 cores,    8 groups


--------------------------------------------------------------------------------------------------------


 INCAR:
 POTCAR:   PAW_PBE Ni_pv 06Sep2000                

 ----------------------------------------------------------------------------- 
|                                                                             |
|           W    W    AA    RRRRR   N    N  II  N    N   GGGG   !!!           |
|           W    W   A  A   R    R  NN   N  II  NN   N  G    G  !!!           |
|           W    W  A    A  R    R  N N  N  II  N N  N  G       !!!           |
|           W WW W  AAAAAA  RRRRR   N  N N  II  N  N N  G  GGG   !            |
|           WW  WW  A    A  R   R   N   NN  II  N   NN  G    G                |
|           W    W  A    A  R    R  N    N  II  N    N   GGGG   !!!           |
|                                                                             |
|      For optimal performance we recommend to set                            |
|        NCORE= 4 - approx SQRT( number of cores)                             |
|      NCORE specifies how many cores store one orbital (NPAR=cpu/NCORE).     |
|      This setting can  greatly improve the performance of VASP for DFT.     |
|      The default, NPAR=number of cores might be grossly inefficient         |
|      on modern multi-core architectures or massively parallel machines.     |
|      Do your own testing !!!!                                               |
|      Unfortunately you need to use the default for GW and RPA calculations. |
|      (for HF NCORE is supported but not extensively tested yet)             |
|                                                                             |
 ----------------------------------------------------------------------------- 

 POTCAR:   PAW_PBE Ni_pv 06Sep2000                
  local pseudopotential read in
  partial core-charges read in
  atomic valenz-charges read in
  non local Contribution for L=           1  read in
    real space projection operators read in
  non local Contribution for L=           1  read in
    real space projection operators read in
  non local Contribution for L=           2  read in
    real space projection operators read in
  non local Contribution for L=           2  read in
    real space projection operators read in
  non local Contribution for L=           0  read in
    real space projection operators read in
  non local Contribution for L=           0  read in
    real space projection operators read in
    PAW grid and wavefunctions read in
 
   number of l-projection  operators is LMAX  =           6
   number of lm-projection operators is LMMAX =          18
 

 ----------------------------------------------------------------------------- 
|                                                                             |
|  ADVICE TO THIS USER RUNNING 'VASP/VAMP'   (HEAR YOUR MASTER'S VOICE ...):  |
|                                                                             |
|      You have a (more or less) 'large supercell' and for larger cells       |
|      it might be more efficient to use real space projection operators      |
|      So try LREAL= Auto  in the INCAR   file.                               |
|      Mind: If you want to do a very accurate calculations keep the          |
|      reciprocal projection scheme          (i.e. LREAL=.FALSE.)             |
|                                                                             |
 ----------------------------------------------------------------------------- 

 PAW_PBE Ni_pv 06Sep2000                :
 energy of atom  1       EATOM=-3500.3496
 kinetic energy error for atom=    0.0894 (will be added to EATOM!!)
 
 
 POSCAR: Supercell by Yi Wang                    
  positions in direct lattice
  No initial velocities read in
 exchange correlation table for  LEXCH =        8
   RHO(1)=    0.500       N(1)  =     2000
   RHO(2)=  100.500       N(2)  =     4000
 


--------------------------------------------------------------------------------------------------------


 ion  position               nearest neighbor table
   1  0.000  0.000  0.000-
   2  0.000  0.000  0.250-
   3  0.000  0.000  0.500-
   4  0.000  0.000  0.750-
   5  0.000  0.250  0.000-
   6  0.000  0.250  0.250-
   7  0.000  0.250  0.500-
   8  0.000  0.250  0.750-
   9  0.000  0.500  0.000-
  10  0.000  0.500  0.250-
  11  0.000  0.500  0.500-
  12  0.000  0.500  0.750-
  13  0.000  0.750  0.000-
  14  0.000  0.750  0.250-
  15  0.000  0.750  0.500-
  16  0.000  0.750  0.750-
  17  0.250  0.000  0.000-
  18  0.250  0.000  0.250-
  19  0.250  0.000  0.500-
  20  0.250  0.000  0.750-
  21  0.250  0.250  0.000-
  22  0.250  0.250  0.250-
  23  0.250  0.250  0.500-
  24  0.250  0.250  0.750-
  25  0.250  0.500  0.000-
  26  0.250  0.500  0.250-
  27  0.250  0.500  0.500-
  28  0.250  0.500  0.750-
  29  0.250  0.750  0.000-
  30  0.250  0.750  0.250-
  31  0.250  0.750  0.500-
  32  0.250  0.750  0.750-
  33  0.500  0.000  0.000-
  34  0.500  0.000  0.250-
  35  0.500  0.000  0.500-
  36  0.500  0.000  0.750-
  37  0.500  0.250  0.000-
  38  0.500  0.250  0.250-
  39  0.500  0.250  0.500-
  40  0.500  0.250  0.750-
  41  0.500  0.500  0.000-
  42  0.500  0.500  0.250-
  43  0.500  0.500  0.500-
  44  0.500  0.500  0.750-
  45  0.500  0.750  0.000-
  46  0.500  0.750  0.250-
  47  0.500  0.750  0.500-
  48  0.500  0.750  0.750-
  49  0.750  0.000  0.000-
  50  0.750  0.000  0.250-
  51  0.750  0.000  0.500-
  52  0.750  0.000  0.750-
  53  0.750  0.250  0.000-
  54  0.750  0.250  0.250-
  55  0.750  0.250  0.500-
  56  0.750  0.250  0.750-
  57  0.750  0.500  0.000-
  58  0.750  0.500  0.250-
  59  0.750  0.500  0.500-
  60  0.750  0.500  0.750-
  61  0.750  0.750  0.000-
  62  0.750  0.750  0.250-
  63  0.750  0.750  0.500-
  64  0.750  0.750  0.750-
 
  LATTYP: Found a face centered cubic cell.
 ALAT       =    14.9460000000
  
  Lattice vectors:
  
 A1 = (   0.0000000000,   7.4730000000,   7.4730000000)
 A2 = (   7.4730000000,   0.0000000000,   7.4730000000)
 A3 = (   7.4730000000,   7.4730000000,   0.0000000000)


Analysis of symmetry for initial positions (statically):
=====================================================================
 Subroutine PRICEL returns following result:
 
  LATTYP: Found a face centered cubic cell.
 ALAT       =     3.7365000000
  
  Lattice vectors:
  
 A1 = (   0.0000000000,   1.8682500000,   1.8682500000)
 A2 = (   1.8682500000,   0.0000000000,   1.8682500000)
 A3 = (   1.8682500000,   1.8682500000,   0.0000000000)
 
  64 primitive cells build up your supercell.
 

 Routine SETGRP: Setting up the symmetry group for a 
 face centered cubic supercell.


 Subroutine GETGRP returns: Found 48 space group operations
 (whereof 48 operations were pure point group operations)
 out of a pool of 48 trial point group operations.


The static configuration has the point symmetry O_h .


Analysis of symmetry for dynamics (positions and initial velocities):
=====================================================================
 Subroutine PRICEL returns following result:
 
  LATTYP: Found a face centered cubic cell.
 ALAT       =     3.7365000000
  
  Lattice vectors:
  
 A1 = (   0.0000000000,   1.8682500000,   1.8682500000)
 A2 = (   1.8682500000,   0.0000000000,   1.8682500000)
 A3 = (   1.8682500000,   1.8682500000,   0.0000000000)
 
  64 primitive cells build up your supercell.
 

 Routine SETGRP: Setting up the symmetry group for a 
 face centered cubic supercell.


 Subroutine GETGRP returns: Found 48 space group operations
 (whereof 48 operations were pure point group operations)
 out of a pool of 48 trial point group operations.


The dynamic configuration has the point symmetry O_h .


Analysis of structural, dynamic, and magnetic symmetry:
=====================================================================
 Subroutine PRICEL returns following result:
 
  LATTYP: Found a face centered cubic cell.
 ALAT       =     3.7365000000
  
  Lattice vectors:
  
 A1 = (   0.0000000000,   1.8682500000,   1.8682500000)
 A2 = (   1.8682500000,   0.0000000000,   1.8682500000)
 A3 = (   1.8682500000,   1.8682500000,   0.0000000000)
 
  64 primitive cells build up your supercell.
 

 Routine SETGRP: Setting up the symmetry group for a 
 face centered cubic supercell.


 Subroutine GETGRP returns: Found 48 space group operations
 (whereof 48 operations were pure point group operations)
 out of a pool of 48 trial point group operations.


The magnetic configuration has the point symmetry O_h .


 Subroutine INISYM returns: Found 48 space group operations
 (whereof 48 operations are pure point group operations),
 and found    64 'primitive' translations

 
 
 KPOINTS: Zr 15x15x15                             

Automatic generation of k-mesh.
Space group operators:
 irot       det(A)        alpha          n_x          n_y          n_z        tau_x        tau_y        tau_z
    1     1.000000     0.000000     1.000000     0.000000     0.000000     0.000000     0.000000     0.000000
    2    -1.000000     0.000000     1.000000     0.000000     0.000000     0.000000     0.000000     0.000000
    3     1.000000   120.000000    -0.577350    -0.577350    -0.577350     0.000000     0.000000     0.000000
    4    -1.000000   120.000000    -0.577350    -0.577350    -0.577350     0.000000     0.000000     0.000000
    5     1.000000   120.000000     0.577350     0.577350     0.577350     0.000000     0.000000     0.000000
    6    -1.000000   120.000000     0.577350     0.577350     0.577350     0.000000     0.000000     0.000000
    7     1.000000    90.000000     0.000000     0.000000    -1.000000     0.000000     0.000000     0.000000
    8    -1.000000    90.000000     0.000000     0.000000    -1.000000     0.000000     0.000000     0.000000
    9     1.000000   180.000000     0.000000     0.707107     0.707107     0.000000     0.000000     0.000000
   10    -1.000000   180.000000     0.000000     0.707107     0.707107     0.000000     0.000000     0.000000
   11     1.000000    90.000000     0.000000     1.000000     0.000000     0.000000     0.000000     0.000000
   12    -1.000000    90.000000     0.000000     1.000000     0.000000     0.000000     0.000000     0.000000
   13     1.000000   180.000000     0.000000     0.000000     1.000000     0.000000     0.000000     0.000000
   14    -1.000000   180.000000     0.000000     0.000000     1.000000     0.000000     0.000000     0.000000
   15     1.000000   120.000000    -0.577350     0.577350     0.577350     0.000000     0.000000     0.000000
   16    -1.000000   120.000000    -0.577350     0.577350     0.577350     0.000000     0.000000     0.000000
   17     1.000000   120.000000    -0.577350     0.577350    -0.577350     0.000000     0.000000     0.000000
   18    -1.000000   120.000000    -0.577350     0.577350    -0.577350     0.000000     0.000000     0.000000
   19     1.000000    90.000000     0.000000     0.000000     1.000000     0.000000     0.000000     0.000000
   20    -1.000000    90.000000     0.000000     0.000000     1.000000     0.000000     0.000000     0.000000
   21     1.000000    90.000000    -1.000000     0.000000     0.000000     0.000000     0.000000     0.000000
   22    -1.000000    90.000000    -1.000000     0.000000     0.000000     0.000000     0.000000     0.000000
   23     1.000000   180.000000     0.707107     0.000000     0.707107     0.000000     0.000000     0.000000
   24    -1.000000   180.000000     0.707107     0.000000     0.707107     0.000000     0.000000     0.000000
   25     1.000000   120.000000     0.577350    -0.577350     0.577350     0.000000     0.000000     0.000000
   26    -1.000000   120.000000     0.577350    -0.577350     0.577350     0.000000     0.000000     0.000000
   27     1.000000   120.000000    -0.577350    -0.577350     0.577350     0.000000     0.000000     0.000000
   28    -1.000000   120.000000    -0.577350    -0.577350     0.577350     0.000000     0.000000     0.000000
   29     1.000000   180.000000     1.000000     0.000000     0.000000     0.000000     0.000000     0.000000
   30    -1.000000   180.000000     1.000000     0.000000     0.000000     0.000000     0.000000     0.000000
   31     1.000000    90.000000     0.000000    -1.000000     0.000000     0.000000     0.000000     0.000000
   32    -1.000000    90.000000     0.000000    -1.000000     0.000000     0.000000     0.000000     0.000000
   33     1.000000   180.000000     0.707107     0.707107     0.000000     0.000000     0.000000     0.000000
   34    -1.000000   180.000000     0.707107     0.707107     0.000000     0.000000     0.000000     0.000000
   35     1.000000    90.000000     1.000000     0.000000     0.000000     0.000000     0.000000     0.000000
   36    -1.000000    90.000000     1.000000     0.000000     0.000000     0.000000     0.000000     0.000000
   37     1.000000   120.000000     0.577350    -0.577350    -0.577350     0.000000     0.000000     0.000000
   38    -1.000000   120.000000     0.577350    -0.577350    -0.577350     0.000000     0.000000     0.000000
   39     1.000000   180.000000     0.000000     1.000000     0.000000     0.000000     0.000000     0.000000
   40    -1.000000   180.000000     0.000000     1.000000     0.000000     0.000000     0.000000     0.000000
   41     1.000000   120.000000     0.577350     0.577350    -0.577350     0.000000     0.000000     0.000000
   42    -1.000000   120.000000     0.577350     0.577350    -0.577350     0.000000     0.000000     0.000000
   43     1.000000   180.000000     0.000000    -0.707107     0.707107     0.000000     0.000000     0.000000
   44    -1.000000   180.000000     0.000000    -0.707107     0.707107     0.000000     0.000000     0.000000
   45     1.000000   180.000000     0.707107    -0.707107     0.000000     0.000000     0.000000     0.000000
   46    -1.000000   180.000000     0.707107    -0.707107     0.000000     0.000000     0.000000     0.000000
   47     1.000000   180.000000     0.707107     0.000000    -0.707107     0.000000     0.000000     0.000000
   48    -1.000000   180.000000     0.707107     0.000000    -0.707107     0.000000     0.000000     0.000000
 
 Subroutine IBZKPT returns following result:
 ===========================================
 
 Found      4 irreducible k-points:
 
 Following reciprocal coordinates:
            Coordinates               Weight
  0.000000  0.000000  0.000000      1.000000
  0.333333  0.000000  0.000000      8.000000
  0.333333  0.333333  0.000000      6.000000
 -0.333333  0.333333  0.000000     12.000000
 
 Following cartesian coordinates:
            Coordinates               Weight
  0.000000  0.000000  0.000000      1.000000
 -0.022303  0.022303  0.022303      8.000000
  0.000000  0.000000  0.044605      6.000000
  0.044605 -0.044605  0.000000     12.000000
 
 
 Subroutine IBZKPT_HF returns following result:
 ==============================================
 
 Found     27 k-points in 1st BZ
 the following     27 k-points will be used (e.g. in the exchange kernel)
 Following reciprocal coordinates:   # in IRBZ
  0.000000  0.000000  0.000000    0.03703704   1 t-inv F
  0.333333  0.000000  0.000000    0.03703704   2 t-inv F
  0.333333  0.333333  0.000000    0.03703704   3 t-inv F
 -0.333333  0.333333  0.000000    0.03703704   4 t-inv F
 -0.333333  0.000000  0.000000    0.03703704   2 t-inv F
  0.000000  0.333333  0.000000    0.03703704   2 t-inv F
  0.000000 -0.333333  0.000000    0.03703704   2 t-inv F
  0.000000  0.000000  0.333333    0.03703704   2 t-inv F
  0.000000  0.000000 -0.333333    0.03703704   2 t-inv F
  0.333333  0.333333  0.333333    0.03703704   2 t-inv F
 -0.333333 -0.333333 -0.333333    0.03703704   2 t-inv F
 -0.333333 -0.333333  0.000000    0.03703704   3 t-inv F
  0.000000  0.333333  0.333333    0.03703704   3 t-inv F
  0.000000 -0.333333 -0.333333    0.03703704   3 t-inv F
  0.333333  0.000000  0.333333    0.03703704   3 t-inv F
 -0.333333  0.000000 -0.333333    0.03703704   3 t-inv F
  0.333333 -0.333333  0.000000    0.03703704   4 t-inv F
  0.000000 -0.333333  0.333333    0.03703704   4 t-inv F
  0.000000  0.333333 -0.333333    0.03703704   4 t-inv F
  0.333333  0.000000 -0.333333    0.03703704   4 t-inv F
 -0.333333  0.000000  0.333333    0.03703704   4 t-inv F
  0.333333  0.333333  0.666667    0.03703704   4 t-inv F
 -0.333333 -0.333333 -0.666667    0.03703704   4 t-inv F
 -0.333333 -0.666667 -0.333333    0.03703704   4 t-inv F
  0.333333  0.666667  0.333333    0.03703704   4 t-inv F
 -0.666667 -0.333333 -0.333333    0.03703704   4 t-inv F
  0.666667  0.333333  0.333333    0.03703704   4 t-inv F


--------------------------------------------------------------------------------------------------------




 Dimension of arrays:
   k-points           NKPTS =      4   k-points in BZ     NKDIM =      4   number of bands    NBANDS=    648
   number of dos      NEDOS =    301   number of ions     NIONS =     64
   non local maximal  LDIM  =      6   non local SUM 2l+1 LMDIM =     18
   total plane-waves  NPLWV = 512000
   max r-space proj   IRMAX =      1   max aug-charges    IRDMAX=   6813
   dimension x,y,z NGX =    80 NGY =   80 NGZ =   80
   dimension x,y,z NGXF=   126 NGYF=  126 NGZF=  126
   support grid    NGXF=   126 NGYF=  126 NGZF=  126
   ions per type =              64
 NGX,Y,Z   is equivalent  to a cutoff of  12.58, 12.58, 12.58 a.u.
 NGXF,Y,Z  is equivalent  to a cutoff of  19.82, 19.82, 19.82 a.u.


 I would recommend the setting:
   dimension x,y,z NGX =    74 NGY =   74 NGZ =   74
 SYSTEM =  phonon of Zr bcc - omiga                
 POSCAR =  Supercell by Yi Wang                    

 Startparameter for this run:
   NWRITE =      0    write-flag & timer
   PREC   = h         normal or accurate (medium, high low for compatibility)
   ISTART =      0    job   : 0-new  1-cont  2-samecut
   ICHARG =      2    charge: 1-file 2-atom 10-const
   ISPIN  =      2    spin polarized calculation?
   LNONCOLLINEAR =      F non collinear calculations
   LSORBIT =      F    spin-orbit coupling
   INIWAV =      1    electr: 0-lowe 1-rand  2-diag
   LASPH  =      F    aspherical Exc in radial PAW
   METAGGA=      F    non-selfconsistent MetaGGA calc.

 Electronic Relaxation 1
   ENCUT  =  459.9 eV  33.80 Ry    5.81 a.u.  18.48 18.48 18.48*2*pi/ulx,y,z
   ENINI  =  459.9     initial cutoff
   ENAUG  =  703.4 eV  augmentation charge cutoff
   NELM   =     60;   NELMIN=  2; NELMDL= -5     # of ELM steps 
   EDIFF  = 0.1E-05   stopping-criterion for ELM
   LREAL  =      F    real-space projection
   NLSPLINE    = F    spline interpolate recip. space projectors
   LCOMPAT=      F    compatible to vasp.4.4
   GGA_COMPAT  = T    GGA compatible to vasp.4.4-vasp.4.6
   LMAXPAW     = -100 max onsite density
   LMAXMIX     =    2 max onsite mixed and CHGCAR
   VOSKOWN=      0    Vosko Wilk Nusair interpolation
   ROPT   =    0.00000
 Ionic relaxation
   EDIFFG = 0.1E-04   stopping-criterion for IOM
   NSW    =      1    number of steps for IOM
   NBLOCK =      1;   KBLOCK =      1    inner block; outer block 
   IBRION =      8    ionic relax: 0-MD 1-quasi-New 2-CG
   NFREE  =      0    steps in history (QN), initial steepest desc. (CG)
   ISIF   =      2    stress and relaxation
   IWAVPR =     11    prediction:  0-non 1-charg 2-wave 3-comb
   ISYM   =      2    0-nonsym 1-usesym 2-fastsym
   LCORR  =      T    Harris-Foulkes like correction to forces

   POTIM  = 0.5000    time-step for ionic-motion
   TEIN   =    0.0    initial temperature
   TEBEG  =    0.0;   TEEND  =   0.0 temperature during run
   SMASS  =  -3.00    Nose mass-parameter (am)
   estimated Nose-frequenzy (Omega)   =  0.10E-29 period in steps =****** mass=  -0.255E-26a.u.
   SCALEE = 1.0000    scale energy and forces
   NPACO  =    256;   APACO  = 16.0  distance and # of slots for P.C.
   PSTRESS=    0.0 pullay stress

  Mass of Ions in am
   POMASS =  58.69
  Ionic Valenz
   ZVAL   =  16.00
  Atomic Wigner-Seitz radii
   RWIGS  =  -1.00
  virtual crystal weights 
   VCA    =   1.00
   NELECT =    1024.0000    total number of electrons
   NUPDOWN=      -1.0000    fix difference up-down

 DOS related values:
   EMIN   =  10.00;   EMAX   =-10.00  energy-range for DOS
   EFERMI =   0.00
   ISMEAR =     1;   SIGMA  =   0.20  broadening in eV -4-tet -1-fermi 0-gaus

 Electronic relaxation 2 (details)
   IALGO  =     38    algorithm
   LDIAG  =      T    sub-space diagonalisation (order eigenvalues)
   LSUBROT=      F    optimize rotation matrix (better conditioning)
   TURBO    =      0    0=normal 1=particle mesh
   IRESTART =      0    0=no restart 2=restart with 2 vectors
   NREBOOT  =      0    no. of reboots
   NMIN     =      0    reboot dimension
   EREF     =   0.00    reference energy to select bands
   IMIX   =      4    mixing-type and parameters
     AMIX     =   0.40;   BMIX     =  1.00
     AMIX_MAG =   1.60;   BMIX_MAG =  1.00
     AMIN     =   0.10
     WC   =   100.;   INIMIX=   1;  MIXPRE=   1;  MAXMIX= -45

 Intra band minimization:
   WEIMIN = 0.0010     energy-eigenvalue tresh-hold
   EBREAK =  0.39E-09  absolut break condition
   DEPER  =   0.30     relativ break condition  

   TIME   =   0.40     timestep for ELM

  volume/ion in A,a.u.               =      13.04        88.01
  Fermi-wavevector in a.u.,A,eV,Ry     =   1.752548  3.311835 41.789251  3.071423
  Thomas-Fermi vector in A             =   2.822857
 
 Write flags
   LWAVE  =      T    write WAVECAR
   LCHARG =      T    write CHGCAR
   LVTOT  =      F    write LOCPOT, total local potential
   LVHAR  =      F    write LOCPOT, Hartree potential only
   LELF   =      F    write electronic localiz. function (ELF)
   LORBIT =      0    0 simple, 1 ext, 2 COOP (PROOUT)


 Dipole corrections
   LMONO  =      F    monopole corrections only (constant potential shift)
   LDIPOL =      F    correct potential (dipole corrections)
   IDIPOL =      0    1-x, 2-y, 3-z, 4-all directions 
   EPSILON=  1.0000000 bulk dielectric constant

 Exchange correlation treatment:
   GGA     =    --    GGA type
   LEXCH   =     8    internal setting for exchange type
   VOSKOWN=      0    Vosko Wilk Nusair interpolation
   LHFCALC =     F    Hartree Fock is set to
   LHFONE  =     F    Hartree Fock one center treatment
   AEXX    =    0.0000 exact exchange contribution

 Linear response parameters
   LEPSILON=     F    determine dielectric tensor
   LRPA    =     F    only Hartree local field effects (RPA)
   LNABLA  =     F    use nabla operator in PAW spheres
   LVEL    =     F    velocity operator in full k-point grid
   LINTERFAST=   F  fast interpolation
   KINTER  =     0    interpolate to denser k-point grid
   CSHIFT  =0.1000    complex shift for real part using Kramers Kronig
   OMEGAMAX=  -1.0    maximum frequency
   DEG_THRESHOLD= 0.2000000E-02 threshold for treating states as degnerate
   RTIME   =    0.100 relaxation time in fs

 Orbital magnetization related:
   ORBITALMAG=     F  switch on orbital magnetization
   LCHIMAG   =     F  perturbation theory with respect to B field
   DQ        =  0.001000  dq finite difference perturbation B field



--------------------------------------------------------------------------------------------------------


 linear response using symmetry
 charge density and potential will be updated during run
 spin polarized calculation
 Variant of blocked Davidson
 Davidson routine will perform the subspace rotation
 perform sub-space diagonalisation
    after iterative eigenvector-optimisation
 modified Broyden-mixing scheme, WC =      100.0
 initial mixing is a Kerker type mixing with AMIX =  0.4000 and BMIX =      1.0000
 Hartree-type preconditioning will be used
 using additional bands          136
 reciprocal scheme for non local part
 use partial core corrections
 calculate Harris-corrections to forces 
   (improved forces if not selfconsistent)
 use gradient corrections 
 use of overlap-Matrix (Vanderbilt PP)
 Methfessel and Paxton  Order N= 1 SIGMA  =   0.20


--------------------------------------------------------------------------------------------------------


  energy-cutoff  :      459.93
  volume of cell :      834.67
      direct lattice vectors                 reciprocal lattice vectors
     0.000000000  7.473000000  7.473000000    -0.066907534  0.066907534  0.066907534
     7.473000000  0.000000000  7.473000000     0.066907534 -0.066907534  0.066907534
     7.473000000  7.473000000  0.000000000     0.066907534  0.066907534 -0.066907534

  length of vectors
    10.568417952 10.568417952 10.568417952     0.115887248  0.115887248  0.115887248


 
 k-points in units of 2pi/SCALE and weight: Zr 15x15x15                             
   0.00000000  0.00000000  0.00000000       0.037
  -0.02230251  0.02230251  0.02230251       0.296
   0.00000000  0.00000000  0.04460502       0.222
   0.04460502 -0.04460502  0.00000000       0.444
 
 k-points in reciprocal lattice and weights: Zr 15x15x15                             
   0.00000000  0.00000000  0.00000000       0.037
   0.33333333  0.00000000  0.00000000       0.296
   0.33333333  0.33333333  0.00000000       0.222
  -0.33333333  0.33333333  0.00000000       0.444
 
 position of ions in fractional coordinates (direct lattice) 
   0.00000000  0.00000000  0.00000000
   0.00000000  0.00000000  0.25000000
   0.00000000  0.00000000  0.50000000
   0.00000000  0.00000000  0.75000000
   0.00000000  0.25000000  0.00000000
   0.00000000  0.25000000  0.25000000
   0.00000000  0.25000000  0.50000000
   0.00000000  0.25000000  0.75000000
   0.00000000  0.50000000  0.00000000
   0.00000000  0.50000000  0.25000000
   0.00000000  0.50000000  0.50000000
   0.00000000  0.50000000  0.75000000
   0.00000000  0.75000000  0.00000000
   0.00000000  0.75000000  0.25000000
   0.00000000  0.75000000  0.50000000
   0.00000000  0.75000000  0.75000000
   0.25000000  0.00000000  0.00000000
   0.25000000  0.00000000  0.25000000
   0.25000000  0.00000000  0.50000000
   0.25000000  0.00000000  0.75000000
   0.25000000  0.25000000  0.00000000
   0.25000000  0.25000000  0.25000000
   0.25000000  0.25000000  0.50000000
   0.25000000  0.25000000  0.75000000
   0.25000000  0.50000000  0.00000000
   0.25000000  0.50000000  0.25000000
   0.25000000  0.50000000  0.50000000
   0.25000000  0.50000000  0.75000000
   0.25000000  0.75000000  0.00000000
   0.25000000  0.75000000  0.25000000
   0.25000000  0.75000000  0.50000000
   0.25000000  0.75000000  0.75000000
   0.50000000  0.00000000  0.00000000
   0.50000000  0.00000000  0.25000000
   0.50000000  0.00000000  0.50000000
   0.50000000  0.00000000  0.75000000
   0.50000000  0.25000000  0.00000000
   0.50000000  0.25000000  0.25000000
   0.50000000  0.25000000  0.50000000
   0.50000000  0.25000000  0.75000000
   0.50000000  0.50000000  0.00000000
   0.50000000  0.50000000  0.25000000
   0.50000000  0.50000000  0.50000000
   0.50000000  0.50000000  0.75000000
   0.50000000  0.75000000  0.00000000
   0.50000000  0.75000000  0.25000000
   0.50000000  0.75000000  0.50000000
   0.50000000  0.75000000  0.75000000
   0.75000000  0.00000000  0.00000000
   0.75000000  0.00000000  0.25000000
   0.75000000  0.00000000  0.50000000
   0.75000000  0.00000000  0.75000000
   0.75000000  0.25000000  0.00000000
   0.75000000  0.25000000  0.25000000
   0.75000000  0.25000000  0.50000000
   0.75000000  0.25000000  0.75000000
   0.75000000  0.50000000  0.00000000
   0.75000000  0.50000000  0.25000000
   0.75000000  0.50000000  0.50000000
   0.75000000  0.50000000  0.75000000
   0.75000000  0.75000000  0.00000000
   0.75000000  0.75000000  0.25000000
   0.75000000  0.75000000  0.50000000
   0.75000000  0.75000000  0.75000000
 
 position of ions in cartesian coordinates  (Angst):
   0.00000000  0.00000000  0.00000000
   1.86825000  1.86825000  0.00000000
   3.73650000  3.73650000  0.00000000
   5.60475000  5.60475000  0.00000000
   1.86825000  0.00000000  1.86825000
   3.73650000  1.86825000  1.86825000
   5.60475000  3.73650000  1.86825000
   7.47300000  5.60475000  1.86825000
   3.73650000  0.00000000  3.73650000
   5.60475000  1.86825000  3.73650000
   7.47300000  3.73650000  3.73650000
   9.34125000  5.60475000  3.73650000
   5.60475000  0.00000000  5.60475000
   7.47300000  1.86825000  5.60475000
   9.34125000  3.73650000  5.60475000
  11.20950000  5.60475000  5.60475000
   0.00000000  1.86825000  1.86825000
   1.86825000  3.73650000  1.86825000
   3.73650000  5.60475000  1.86825000
   5.60475000  7.47300000  1.86825000
   1.86825000  1.86825000  3.73650000
   3.73650000  3.73650000  3.73650000
   5.60475000  5.60475000  3.73650000
   7.47300000  7.47300000  3.73650000
   3.73650000  1.86825000  5.60475000
   5.60475000  3.73650000  5.60475000
   7.47300000  5.60475000  5.60475000
   9.34125000  7.47300000  5.60475000
   5.60475000  1.86825000  7.47300000
   7.47300000  3.73650000  7.47300000
   9.34125000  5.60475000  7.47300000
  11.20950000  7.47300000  7.47300000
   0.00000000  3.73650000  3.73650000
   1.86825000  5.60475000  3.73650000
   3.73650000  7.47300000  3.73650000
   5.60475000  9.34125000  3.73650000
   1.86825000  3.73650000  5.60475000
   3.73650000  5.60475000  5.60475000
   5.60475000  7.47300000  5.60475000
   7.47300000  9.34125000  5.60475000
   3.73650000  3.73650000  7.47300000
   5.60475000  5.60475000  7.47300000
   7.47300000  7.47300000  7.47300000
   9.34125000  9.34125000  7.47300000
   5.60475000  3.73650000  9.34125000
   7.47300000  5.60475000  9.34125000
   9.34125000  7.47300000  9.34125000
  11.20950000  9.34125000  9.34125000
   0.00000000  5.60475000  5.60475000
   1.86825000  7.47300000  5.60475000
   3.73650000  9.34125000  5.60475000
   5.60475000 11.20950000  5.60475000
   1.86825000  5.60475000  7.47300000
   3.73650000  7.47300000  7.47300000
   5.60475000  9.34125000  7.47300000
   7.47300000 11.20950000  7.47300000
   3.73650000  5.60475000  9.34125000
   5.60475000  7.47300000  9.34125000
   7.47300000  9.34125000  9.34125000
   9.34125000 11.20950000  9.34125000
   5.60475000  5.60475000 11.20950000
   7.47300000  7.47300000 11.20950000
   9.34125000  9.34125000 11.20950000
  11.20950000 11.20950000 11.20950000
 


--------------------------------------------------------------------------------------------------------


 k-point  1 :   0.0000 0.0000 0.0000  plane waves:   18763
 k-point  2 :   0.3333 0.0000 0.0000  plane waves:   18711
 k-point  3 :   0.3333 0.3333 0.0000  plane waves:   18730
 k-point  4 :  -0.3333 0.3333 0.0000  plane waves:   18642

 maximum and minimum number of plane-waves per node :     18763    18642

 maximum number of plane-waves:     18763
 maximum index in each direction: 
   IXMAX=   18   IYMAX=   18   IZMAX=   18
   IXMIN=  -18   IYMIN=  -18   IZMIN=  -18

 NGX is ok and might be reduce to  74
 NGY is ok and might be reduce to  74
 NGZ is ok and might be reduce to  74

 serial   3D FFT for wavefunctions
 parallel 3D FFT for charge:
    minimum data exchange during FFTs selected (reduces bandwidth)


 total amount of memory used by VASP on root node   339337. kBytes
========================================================================

   base      :      30000. kBytes
   nonl-proj :      30028. kBytes
   fftplans  :      11110. kBytes
   grid      :      59679. kBytes
   one-center:       1990. kBytes
   wavefun   :     206530. kBytes
 
     INWAV:  cpu time    0.0010: real time    0.0000
 Broyden mixing: mesh for mixing (old mesh)
   NGX = 37   NGY = 37   NGZ = 37
  (NGX  =126   NGY  =126   NGZ  =126)
  gives a total of  50653 points

 initial charge density was supplied:
 charge density of overlapping atoms calculated
 number of electron    1024.0000000 magnetization      64.0000000
 keeping initial charge density in first step


--------------------------------------------------------------------------------------------------------


 Maximum index for augmentation-charges          905 (set IRDMAX)


--------------------------------------------------------------------------------------------------------


 First call to EWALD:  gamma=   0.188
 Maximum number of real-space cells 3x 3x 3
 Maximum number of reciprocal cells 3x 3x 3

 FEWALD executed in parallel
    FEWALD:  cpu time    0.0040: real time    0.0043


----------------------------------------- Iteration    1(   1)  ---------------------------------------


    POTLOK:  cpu time    0.3549: real time    0.3542
    SETDIJ:  cpu time    0.0480: real time    0.0477
     EDDAV:  cpu time  160.3606: real time  160.2284
       DOS:  cpu time    0.0020: real time    0.0021
    --------------------------------------------
      LOOP:  cpu time  160.7656: real time  160.6343

 eigenvalue-minimisations  : 11744
 total energy-change (2. order) : 0.1523363E+05  (-0.6166928E+05)
 number of electron    1024.0000000 magnetization      64.0000000
 augmentation part     1024.0000000 magnetization      64.0000000

 Free energy of the ion-electron system (eV)
  ---------------------------------------------------
  alpha Z        PSCENC =      8266.97428417
  Ewald energy   TEWEN  =   -144746.26977670
  -Hartree energ DENC   =    -67168.00643193
  -exchange      EXHF   =         0.00000000
  -V(xc)+E(xc)   XCENC  =      5681.51835869
  PAW double counting   =    172361.15642774  -181272.45834873
  entropy T*S    EENTRO =        -0.00196182
  eigenvalues    EBANDS =     -1905.93083785
  atomic energy  EATOM  =    224016.65216645
  Solvation  Ediel_sol  =         0.00000000
  ---------------------------------------------------
  free energy    TOTEN  =     15233.63388003 eV

  energy without entropy =    15233.63584185  energy(sigma->0) =    15233.63453397


--------------------------------------------------------------------------------------------------------




----------------------------------------- Iteration    1(   2)  ---------------------------------------


     EDDAV:  cpu time  146.0458: real time  145.9251
       DOS:  cpu time    0.0020: real time    0.0022
    --------------------------------------------
      LOOP:  cpu time  146.0478: real time  145.9279

 eigenvalue-minimisations  : 10368
 total energy-change (2. order) :-0.1427569E+05  (-0.1389449E+05)
 number of electron    1024.0000000 magnetization      64.0000000
 augmentation part     1024.0000000 magnetization      64.0000000

 Free energy of the ion-electron system (eV)
  ---------------------------------------------------
  alpha Z        PSCENC =      8266.97428417
  Ewald energy   TEWEN  =   -144746.26977670
  -Hartree energ DENC   =    -67168.00643193
  -exchange      EXHF   =         0.00000000
  -V(xc)+E(xc)   XCENC  =      5681.51835869
  PAW double counting   =    172361.15642774  -181272.45834873
  entropy T*S    EENTRO =        -0.02705075
  eigenvalues    EBANDS =    -16181.59278954
  atomic energy  EATOM  =    224016.65216645
  Solvation  Ediel_sol  =         0.00000000
  ---------------------------------------------------
  free energy    TOTEN  =       957.94683942 eV

  energy without entropy =      957.97389017  energy(sigma->0) =      957.95585633


--------------------------------------------------------------------------------------------------------




----------------------------------------- Iteration    1(   3)  ---------------------------------------


     EDDAV:  cpu time  148.4374: real time  148.3145
       DOS:  cpu time    0.0020: real time    0.0024
    --------------------------------------------
      LOOP:  cpu time  148.4394: real time  148.3174

 eigenvalue-minimisations  : 10576
 total energy-change (2. order) :-0.1299961E+04  (-0.1083322E+04)
 number of electron    1024.0000000 magnetization      64.0000000
 augmentation part     1024.0000000 magnetization      64.0000000

 Free energy of the ion-electron system (eV)
  ---------------------------------------------------
  alpha Z        PSCENC =      8266.97428417
  Ewald energy   TEWEN  =   -144746.26977670
  -Hartree energ DENC   =    -67168.00643193
  -exchange      EXHF   =         0.00000000
  -V(xc)+E(xc)   XCENC  =      5681.51835869
  PAW double counting   =    172361.15642774  -181272.45834873
  entropy T*S    EENTRO =         0.16687594
  eigenvalues    EBANDS =    -17481.74796075
  atomic energy  EATOM  =    224016.65216645
  Solvation  Ediel_sol  =         0.00000000
  ---------------------------------------------------
  free energy    TOTEN  =      -342.01440511 eV

  energy without entropy =     -342.18128104  energy(sigma->0) =     -342.07003042


--------------------------------------------------------------------------------------------------------




----------------------------------------- Iteration    1(   4)  ---------------------------------------


     EDDAV:  cpu time  154.2446: real time  154.1178
       DOS:  cpu time    0.0030: real time    0.0024
    --------------------------------------------
      LOOP:  cpu time  154.2476: real time  154.1207

 eigenvalue-minimisations  : 11128
 total energy-change (2. order) :-0.7637803E+02  (-0.7375838E+02)
 number of electron    1024.0000000 magnetization      64.0000000
 augmentation part     1024.0000000 magnetization      64.0000000

 Free energy of the ion-electron system (eV)
  ---------------------------------------------------
  alpha Z        PSCENC =      8266.97428417
  Ewald energy   TEWEN  =   -144746.26977670
  -Hartree energ DENC   =    -67168.00643193
  -exchange      EXHF   =         0.00000000
  -V(xc)+E(xc)   XCENC  =      5681.51835869
  PAW double counting   =    172361.15642774  -181272.45834873
  entropy T*S    EENTRO =         0.16665910
  eigenvalues    EBANDS =    -17558.12577714
  atomic energy  EATOM  =    224016.65216645
  Solvation  Ediel_sol  =         0.00000000
  ---------------------------------------------------
  free energy    TOTEN  =      -418.39243833 eV

  energy without entropy =     -418.55909743  energy(sigma->0) =     -418.44799137


--------------------------------------------------------------------------------------------------------




----------------------------------------- Iteration    1(   5)  ---------------------------------------


     EDDAV:  cpu time  153.2867: real time  153.1604
       DOS:  cpu time    0.0020: real time    0.0024
    CHARGE:  cpu time    8.3377: real time    8.3306
    MIXING:  cpu time    0.0070: real time    0.0072
    --------------------------------------------
      LOOP:  cpu time  161.6334: real time  161.5012

 eigenvalue-minimisations  : 11032
 total energy-change (2. order) :-0.1350844E+01  (-0.1348768E+01)
 number of electron    1024.0000238 magnetization      59.1740698
 augmentation part      572.8889152 magnetization      47.1214629

 Broyden mixing:
  rms(total) = 0.67531E+01    rms(broyden)= 0.67499E+01
  rms(prec ) = 0.90835E+01
  weight for this iteration     100.00

 Free energy of the ion-electron system (eV)
  ---------------------------------------------------
  alpha Z        PSCENC =      8266.97428417
  Ewald energy   TEWEN  =   -144746.26977670
  -Hartree energ DENC   =    -67168.00643193
  -exchange      EXHF   =         0.00000000
  -V(xc)+E(xc)   XCENC  =      5681.51835869
  PAW double counting   =    172361.15642774  -181272.45834873
  entropy T*S    EENTRO =         0.16721515
  eigenvalues    EBANDS =    -17559.47717716
  atomic energy  EATOM  =    224016.65216645
  Solvation  Ediel_sol  =         0.00000000
  ---------------------------------------------------
  free energy    TOTEN  =      -419.74328230 eV

  energy without entropy =     -419.91049745  energy(sigma->0) =     -419.79902069


--------------------------------------------------------------------------------------------------------




----------------------------------------- Iteration    1(   6)  ---------------------------------------


    POTLOK:  cpu time    0.3429: real time    0.3426
    SETDIJ:  cpu time    0.0480: real time    0.0481
     EDDAV:  cpu time  151.1410: real time  151.0167
       DOS:  cpu time    0.0020: real time    0.0025
    CHARGE:  cpu time    7.9188: real time    7.9116
    MIXING:  cpu time    0.0080: real time    0.0076
    --------------------------------------------
      LOOP:  cpu time  159.4618: real time  159.3298

 eigenvalue-minimisations  : 10872
 total energy-change (2. order) : 0.1805737E+02  (-0.6907022E+02)
 number of electron    1024.0000267 magnetization      53.1225182
 augmentation part      637.0533217 magnetization      47.7677176

 Broyden mixing:
  rms(total) = 0.61433E+01    rms(broyden)= 0.61426E+01
  rms(prec ) = 0.76805E+01
  weight for this iteration     100.00

 eigenvalues of (default mixing * dielectric matrix)
  average eigenvalue GAMMA=   0.5009
  0.5009

 Free energy of the ion-electron system (eV)
  ---------------------------------------------------
  alpha Z        PSCENC =      8266.97428417
  Ewald energy   TEWEN  =   -144746.26977670
  -Hartree energ DENC   =    -63775.01227280
  -exchange      EXHF   =         0.00000000
  -V(xc)+E(xc)   XCENC  =      5554.40179060
  PAW double counting   =    166846.83885429  -175426.90899637
  entropy T*S    EENTRO =        -0.52741460
  eigenvalues    EBANDS =    -21137.83454898
  atomic energy  EATOM  =    224016.65216645
  Solvation  Ediel_sol  =         0.00000000
  ---------------------------------------------------
  free energy    TOTEN  =      -401.68591394 eV

  energy without entropy =     -401.15849934  energy(sigma->0) =     -401.51010907


--------------------------------------------------------------------------------------------------------




----------------------------------------- Iteration    1(   7)  ---------------------------------------


    POTLOK:  cpu time    0.3339: real time    0.3344
    SETDIJ:  cpu time    0.0480: real time    0.0479
     EDDAV:  cpu time  151.0190: real time  150.8939
       DOS:  cpu time    0.0020: real time    0.0024
    CHARGE:  cpu time    7.9848: real time    7.9785
    MIXING:  cpu time    0.0090: real time    0.0081
    --------------------------------------------
      LOOP:  cpu time  159.3968: real time  159.2658

 eigenvalue-minimisations  : 10800
 total energy-change (2. order) : 0.4265354E+02  (-0.1630043E+02)
 number of electron    1024.0000254 magnetization      48.9824794
 augmentation part      607.2260813 magnetization      40.0364153

 Broyden mixing:
  rms(total) = 0.61568E+00    rms(broyden)= 0.61469E+00
  rms(prec ) = 0.70891E+00
  weight for this iteration     100.00

 eigenvalues of (default mixing * dielectric matrix)
  average eigenvalue GAMMA=   0.6839
  0.8250  0.5427

 Free energy of the ion-electron system (eV)
  ---------------------------------------------------
  alpha Z        PSCENC =      8266.97428417
  Ewald energy   TEWEN  =   -144746.26977670
  -Hartree energ DENC   =    -65157.59198473
  -exchange      EXHF   =         0.00000000
  -V(xc)+E(xc)   XCENC  =      5605.59374587
  PAW double counting   =    169552.79191360  -178424.83211830
  entropy T*S    EENTRO =        -0.10635218
  eigenvalues    EBANDS =    -19472.24424830
  atomic energy  EATOM  =    224016.65216645
  Solvation  Ediel_sol  =         0.00000000
  ---------------------------------------------------
  free energy    TOTEN  =      -359.03237012 eV

  energy without entropy =     -358.92601795  energy(sigma->0) =     -358.99691940


--------------------------------------------------------------------------------------------------------




----------------------------------------- Iteration    1(   8)  ---------------------------------------


    POTLOK:  cpu time    0.3379: real time    0.3383
    SETDIJ:  cpu time    0.0480: real time    0.0475
     EDDAV:  cpu time  151.3000: real time  151.1752
       DOS:  cpu time    0.0010: real time    0.0024
    CHARGE:  cpu time    7.9508: real time    7.9432
    MIXING:  cpu time    0.0080: real time    0.0084
    --------------------------------------------
      LOOP:  cpu time  159.6457: real time  159.5157

 eigenvalue-minimisations  : 10896
 total energy-change (2. order) :-0.2257927E+00  (-0.1822365E+00)
 number of electron    1024.0000253 magnetization      45.5041845
 augmentation part      606.4270278 magnetization      38.0121689

 Broyden mixing:
  rms(total) = 0.33177E+00    rms(broyden)= 0.33167E+00
  rms(prec ) = 0.43427E+00
  weight for this iteration     100.00

 eigenvalues of (default mixing * dielectric matrix)
  average eigenvalue GAMMA=   1.0995
  0.5487  0.8474  1.9026

 Free energy of the ion-electron system (eV)
  ---------------------------------------------------
  alpha Z        PSCENC =      8266.97428417
  Ewald energy   TEWEN  =   -144746.26977670
  -Hartree energ DENC   =    -65066.44856275
  -exchange      EXHF   =         0.00000000
  -V(xc)+E(xc)   XCENC  =      5603.45236471
  PAW double counting   =    169831.60738212  -178785.37025807
  entropy T*S    EENTRO =        -0.08757719
  eigenvalues    EBANDS =    -19479.76818552
  atomic energy  EATOM  =    224016.65216645
  Solvation  Ediel_sol  =         0.00000000
  ---------------------------------------------------
  free energy    TOTEN  =      -359.25816278 eV

  energy without entropy =     -359.17058559  energy(sigma->0) =     -359.22897038


--------------------------------------------------------------------------------------------------------




----------------------------------------- Iteration    1(   9)  ---------------------------------------


    POTLOK:  cpu time    0.3349: real time    0.3356
    SETDIJ:  cpu time    0.0480: real time    0.0475
     EDDAV:  cpu time  154.4375: real time  154.3104
       DOS:  cpu time    0.0030: real time    0.0024
    CHARGE:  cpu time    7.9418: real time    7.9350
    MIXING:  cpu time    0.0090: real time    0.0088
    --------------------------------------------
      LOOP:  cpu time  162.7753: real time  162.6404

 eigenvalue-minimisations  : 11192
 total energy-change (2. order) : 0.1135945E+00  (-0.3483381E-01)
 number of electron    1024.0000254 magnetization      45.5523977
 augmentation part      607.3760030 magnetization      39.2726770

 Broyden mixing:
  rms(total) = 0.83347E-01    rms(broyden)= 0.83317E-01
  rms(prec ) = 0.86523E-01
  weight for this iteration     100.00

 eigenvalues of (default mixing * dielectric matrix)
  average eigenvalue GAMMA=   1.0798
  2.2537  0.8834  0.5564  0.6258

 Free energy of the ion-electron system (eV)
  ---------------------------------------------------
  alpha Z        PSCENC =      8266.97428417
  Ewald energy   TEWEN  =   -144746.26977670
  -Hartree energ DENC   =    -64902.08635134
  -exchange      EXHF   =         0.00000000
  -V(xc)+E(xc)   XCENC  =      5598.57152037
  PAW double counting   =    170054.20104622  -179081.40276566
  entropy T*S    EENTRO =        -0.09467302
  eigenvalues    EBANDS =    -19565.69001877
  atomic energy  EATOM  =    224016.65216645
  Solvation  Ediel_sol  =         0.00000000
  ---------------------------------------------------
  free energy    TOTEN  =      -359.14456828 eV

  energy without entropy =     -359.04989526  energy(sigma->0) =     -359.11301060


--------------------------------------------------------------------------------------------------------




----------------------------------------- Iteration    1(  10)  ---------------------------------------


    POTLOK:  cpu time    0.3349: real time    0.3350
    SETDIJ:  cpu time    0.0480: real time    0.0476
     EDDAV:  cpu time  159.1358: real time  159.0049
       DOS:  cpu time    0.0020: real time    0.0024
    CHARGE:  cpu time    7.9768: real time    7.9699
    MIXING:  cpu time    0.0090: real time    0.0093
    --------------------------------------------
      LOOP:  cpu time  167.5065: real time  167.3699

 eigenvalue-minimisations  : 11680
 total energy-change (2. order) :-0.6663558E-02  (-0.1755525E-02)
 number of electron    1024.0000254 magnetization      45.9445768
 augmentation part      607.3343940 magnetization      39.5991990

 Broyden mixing:
  rms(total) = 0.36208E-01    rms(broyden)= 0.36191E-01
  rms(prec ) = 0.38876E-01
  weight for this iteration     100.00

 eigenvalues of (default mixing * dielectric matrix)
  average eigenvalue GAMMA=   1.1447
  2.3091  1.2659  0.9750  0.5521  0.6213

 Free energy of the ion-electron system (eV)
  ---------------------------------------------------
  alpha Z        PSCENC =      8266.97428417
  Ewald energy   TEWEN  =   -144746.26977670
  -Hartree energ DENC   =    -64896.22958707
  -exchange      EXHF   =         0.00000000
  -V(xc)+E(xc)   XCENC  =      5598.45404819
  PAW double counting   =    170123.98833162  -179156.97592542
  entropy T*S    EENTRO =        -0.09367365
  eigenvalues    EBANDS =    -19565.65109942
  atomic energy  EATOM  =    224016.65216645
  Solvation  Ediel_sol  =         0.00000000
  ---------------------------------------------------
  free energy    TOTEN  =      -359.15123184 eV

  energy without entropy =     -359.05755818  energy(sigma->0) =     -359.12000728


--------------------------------------------------------------------------------------------------------




----------------------------------------- Iteration    1(  11)  ---------------------------------------


    POTLOK:  cpu time    0.3339: real time    0.3344
    SETDIJ:  cpu time    0.0480: real time    0.0474
     EDDAV:  cpu time  152.3668: real time  152.2410
       DOS:  cpu time    0.0010: real time    0.0024
    CHARGE:  cpu time    7.9618: real time    7.9549
    MIXING:  cpu time    0.0100: real time    0.0098
    --------------------------------------------
      LOOP:  cpu time  160.7226: real time  160.5907

 eigenvalue-minimisations  : 11008
 total energy-change (2. order) :-0.3706086E-02  (-0.8914970E-03)
 number of electron    1024.0000254 magnetization      46.0329930
 augmentation part      607.1931953 magnetization      39.5225439

 Broyden mixing:
  rms(total) = 0.13947E-01    rms(broyden)= 0.13928E-01
  rms(prec ) = 0.17339E-01
  weight for this iteration     100.00

 eigenvalues of (default mixing * dielectric matrix)
  average eigenvalue GAMMA=   1.1822
  2.4063  1.8091  0.9411  0.5491  0.7516  0.6363

 Free energy of the ion-electron system (eV)
  ---------------------------------------------------
  alpha Z        PSCENC =      8266.97428417
  Ewald energy   TEWEN  =   -144746.26977670
  -Hartree energ DENC   =    -64902.21371979
  -exchange      EXHF   =         0.00000000
  -V(xc)+E(xc)   XCENC  =      5598.65025694
  PAW double counting   =    170216.34649326  -179250.39221023
  entropy T*S    EENTRO =        -0.09256389
  eigenvalues    EBANDS =    -19558.80986814
  atomic energy  EATOM  =    224016.65216645
  Solvation  Ediel_sol  =         0.00000000
  ---------------------------------------------------
  free energy    TOTEN  =      -359.15493792 eV

  energy without entropy =     -359.06237403  energy(sigma->0) =     -359.12408329


--------------------------------------------------------------------------------------------------------




----------------------------------------- Iteration    1(  12)  ---------------------------------------


    POTLOK:  cpu time    0.3349: real time    0.3356
    SETDIJ:  cpu time    0.0480: real time    0.0475
     EDDAV:  cpu time  155.8413: real time  155.7130
       DOS:  cpu time    0.0020: real time    0.0024
    CHARGE:  cpu time    7.9658: real time    7.9586
    MIXING:  cpu time    0.0100: real time    0.0104
    --------------------------------------------
      LOOP:  cpu time  164.2030: real time  164.0681

 eigenvalue-minimisations  : 11312
 total energy-change (2. order) :-0.7214403E-04  (-0.9360299E-04)
 number of electron    1024.0000254 magnetization      46.0358151
 augmentation part      607.2504633 magnetization      39.4989127

 Broyden mixing:
  rms(total) = 0.24714E-02    rms(broyden)= 0.24610E-02
  rms(prec ) = 0.26323E-02
  weight for this iteration     100.00

 eigenvalues of (default mixing * dielectric matrix)
  average eigenvalue GAMMA=   1.1808
  2.4575  1.9514  0.9654  0.9654  0.5498  0.7485  0.6279

 Free energy of the ion-electron system (eV)
  ---------------------------------------------------
  alpha Z        PSCENC =      8266.97428417
  Ewald energy   TEWEN  =   -144746.26977670
  -Hartree energ DENC   =    -64899.31561827
  -exchange      EXHF   =         0.00000000
  -V(xc)+E(xc)   XCENC  =      5598.53793539
  PAW double counting   =    170241.55257905  -179275.09419386
  entropy T*S    EENTRO =        -0.09398441
  eigenvalues    EBANDS =    -19562.09840189
  atomic energy  EATOM  =    224016.65216645
  Solvation  Ediel_sol  =         0.00000000
  ---------------------------------------------------
  free energy    TOTEN  =      -359.15501007 eV

  energy without entropy =     -359.06102565  energy(sigma->0) =     -359.12368193


--------------------------------------------------------------------------------------------------------




----------------------------------------- Iteration    1(  13)  ---------------------------------------


    POTLOK:  cpu time    0.3339: real time    0.3341
    SETDIJ:  cpu time    0.0480: real time    0.0479
     EDDAV:  cpu time  158.2059: real time  158.0757
       DOS:  cpu time    0.0030: real time    0.0024
    CHARGE:  cpu time    7.9528: real time    7.9475
    MIXING:  cpu time    0.0120: real time    0.0111
    --------------------------------------------
      LOOP:  cpu time  166.5567: real time  166.4194

 eigenvalue-minimisations  : 11496
 total energy-change (2. order) :-0.6082992E-06  (-0.6236267E-05)
 number of electron    1024.0000254 magnetization      46.0301203
 augmentation part      607.2651937 magnetization      39.4955993

 Broyden mixing:
  rms(total) = 0.20107E-02    rms(broyden)= 0.20102E-02
  rms(prec ) = 0.25995E-02
  weight for this iteration     100.00

 eigenvalues of (default mixing * dielectric matrix)
  average eigenvalue GAMMA=   1.2223
  2.4348  2.0269  1.6259  0.9720  0.5503  0.6234  0.7726  0.7726

 Free energy of the ion-electron system (eV)
  ---------------------------------------------------
  alpha Z        PSCENC =      8266.97428417
  Ewald energy   TEWEN  =   -144746.26977670
  -Hartree energ DENC   =    -64899.01072105
  -exchange      EXHF   =         0.00000000
  -V(xc)+E(xc)   XCENC  =      5598.52861643
  PAW double counting   =    170248.92181185  -179281.97209026
  entropy T*S    EENTRO =        -0.09417320
  eigenvalues    EBANDS =    -19562.88512838
  atomic energy  EATOM  =    224016.65216645
  Solvation  Ediel_sol  =         0.00000000
  ---------------------------------------------------
  free energy    TOTEN  =      -359.15501068 eV

  energy without entropy =     -359.06083748  energy(sigma->0) =     -359.12361961


--------------------------------------------------------------------------------------------------------




----------------------------------------- Iteration    1(  14)  ---------------------------------------


    POTLOK:  cpu time    0.3339: real time    0.3343
    SETDIJ:  cpu time    0.0480: real time    0.0475
     EDDAV:  cpu time  123.4192: real time  123.3172
       DOS:  cpu time    0.0020: real time    0.0024
    CHARGE:  cpu time    7.9498: real time    7.9434
    MIXING:  cpu time    0.0120: real time    0.0116
    --------------------------------------------
      LOOP:  cpu time  131.7660: real time  131.6581

 eigenvalue-minimisations  :  8152
 total energy-change (2. order) : 0.1808477E-04  (-0.6202261E-06)
 number of electron    1024.0000254 magnetization      46.0286349
 augmentation part      607.2615062 magnetization      39.4967300

 Broyden mixing:
  rms(total) = 0.10551E-02    rms(broyden)= 0.10550E-02
  rms(prec ) = 0.12966E-02
  weight for this iteration     100.00

 eigenvalues of (default mixing * dielectric matrix)
  average eigenvalue GAMMA=   1.2554
  2.4863  2.4863  1.8389  0.9402  0.9402  0.7945  0.5501  0.6257  0.6360

 Free energy of the ion-electron system (eV)
  ---------------------------------------------------
  alpha Z        PSCENC =      8266.97428417
  Ewald energy   TEWEN  =   -144746.26977670
  -Hartree energ DENC   =    -64899.56913036
  -exchange      EXHF   =         0.00000000
  -V(xc)+E(xc)   XCENC  =      5598.55055861
  PAW double counting   =    170255.16295109  -179287.90099263
  entropy T*S    EENTRO =        -0.09409241
  eigenvalues    EBANDS =    -19562.66096081
  atomic energy  EATOM  =    224016.65216645
  Solvation  Ediel_sol  =         0.00000000
  ---------------------------------------------------
  free energy    TOTEN  =      -359.15499259 eV

  energy without entropy =     -359.06090018  energy(sigma->0) =     -359.12362845


--------------------------------------------------------------------------------------------------------




----------------------------------------- Iteration    1(  15)  ---------------------------------------


    POTLOK:  cpu time    0.3379: real time    0.3375
    SETDIJ:  cpu time    0.0470: real time    0.0478
     EDDAV:  cpu time  116.3843: real time  116.2874
       DOS:  cpu time    0.0020: real time    0.0025
    CHARGE:  cpu time    7.9528: real time    7.9470
    MIXING:  cpu time    0.0130: real time    0.0123
    --------------------------------------------
      LOOP:  cpu time  124.7370: real time  124.6351

 eigenvalue-minimisations  :  7480
 total energy-change (2. order) : 0.7834693E-05  (-0.3256430E-06)
 number of electron    1024.0000254 magnetization      46.0278266
 augmentation part      607.2572668 magnetization      39.4956257

 Broyden mixing:
  rms(total) = 0.11452E-03    rms(broyden)= 0.11400E-03
  rms(prec ) = 0.12568E-03
  weight for this iteration     100.00

 eigenvalues of (default mixing * dielectric matrix)
  average eigenvalue GAMMA=   1.2352
  2.6287  2.4310  1.8650  1.0116  1.0116  0.5501  0.7873  0.7873  0.6273  0.6525

 Free energy of the ion-electron system (eV)
  ---------------------------------------------------
  alpha Z        PSCENC =      8266.97428417
  Ewald energy   TEWEN  =   -144746.26977670
  -Hartree energ DENC   =    -64899.90810054
  -exchange      EXHF   =         0.00000000
  -V(xc)+E(xc)   XCENC  =      5598.56319759
  PAW double counting   =    170258.00750693  -179290.65215125
  entropy T*S    EENTRO =        -0.09402388
  eigenvalues    EBANDS =    -19562.42808752
  atomic energy  EATOM  =    224016.65216645
  Solvation  Ediel_sol  =         0.00000000
  ---------------------------------------------------
  free energy    TOTEN  =      -359.15498476 eV

  energy without entropy =     -359.06096087  energy(sigma->0) =     -359.12364346


--------------------------------------------------------------------------------------------------------




----------------------------------------- Iteration    1(  16)  ---------------------------------------


    POTLOK:  cpu time    0.3389: real time    0.3385
    SETDIJ:  cpu time    0.0480: real time    0.0479
     EDDAV:  cpu time   94.4226: real time   94.3455
       DOS:  cpu time    0.0030: real time    0.0024
    --------------------------------------------
      LOOP:  cpu time   94.8136: real time   94.7349

 eigenvalue-minimisations  :  5456
 total energy-change (2. order) :-0.4696776E-06  (-0.1702430E-07)
 number of electron    1024.0000254 magnetization      46.0278266
 augmentation part      607.2572668 magnetization      39.4956257

 Free energy of the ion-electron system (eV)
  ---------------------------------------------------
  alpha Z        PSCENC =      8266.97428417
  Ewald energy   TEWEN  =   -144746.26977670
  -Hartree energ DENC   =    -64899.89415700
  -exchange      EXHF   =         0.00000000
  -V(xc)+E(xc)   XCENC  =      5598.56274924
  PAW double counting   =    170257.97001101  -179290.62523004
  entropy T*S    EENTRO =        -0.09402038
  eigenvalues    EBANDS =    -19562.43101198
  atomic energy  EATOM  =    224016.65216645
  Solvation  Ediel_sol  =         0.00000000
  ---------------------------------------------------
  free energy    TOTEN  =      -359.15498523 eV

  energy without entropy =     -359.06096485  energy(sigma->0) =     -359.12364510


--------------------------------------------------------------------------------------------------------




 average (electrostatic) potential at core
  the test charge radii are     0.8614
  (the norm of the test charge is              1.0000)
       1 -81.1852       2 -81.1852       3 -81.1852       4 -81.1852       5 -81.1852
       6 -81.1852       7 -81.1852       8 -81.1852       9 -81.1852      10 -81.1852
      11 -81.1852      12 -81.1852      13 -81.1852      14 -81.1852      15 -81.1852
      16 -81.1852      17 -81.1852      18 -81.1852      19 -81.1852      20 -81.1852
      21 -81.1852      22 -81.1852      23 -81.1852      24 -81.1852      25 -81.1852
      26 -81.1852      27 -81.1852      28 -81.1852      29 -81.1852      30 -81.1852
      31 -81.1852      32 -81.1852      33 -81.1852      34 -81.1852      35 -81.1852
      36 -81.1852      37 -81.1852      38 -81.1852      39 -81.1852      40 -81.1852
      41 -81.1852      42 -81.1852      43 -81.1852      44 -81.1852      45 -81.1852
      46 -81.1852      47 -81.1852      48 -81.1852      49 -81.1852      50 -81.1852
      51 -81.1852      52 -81.1852      53 -81.1852      54 -81.1852      55 -81.1852
      56 -81.1852      57 -81.1852      58 -81.1852      59 -81.1852      60 -81.1852
      61 -81.1852      62 -81.1852      63 -81.1852      64 -81.1852
 
 
 
 E-fermi :   5.8281     XC(G=0): -12.6656     alpha+bet :-12.4150


 spin component 1

 k-point     1 :       0.0000    0.0000    0.0000
  band No.  band energies     occupation 
      1     -57.9740      1.00000
      2     -57.9739      1.00000
      3     -57.9739      1.00000
      4     -57.9739      1.00000
      5     -57.9685      1.00000
      6     -57.9685      1.00000
      7     -57.9685      1.00000
      8     -57.9558      1.00000
      9     -57.9558      1.00000
     10     -57.9558      1.00000
     11     -57.9558      1.00000
     12     -57.9558      1.00000
     13     -57.9558      1.00000
     14     -57.9558      1.00000
     15     -57.9558      1.00000
     16     -57.9558      1.00000
     17     -57.9558      1.00000
     18     -57.9558      1.00000
     19     -57.9558      1.00000
     20     -57.9558      1.00000
     21     -57.9558      1.00000
     22     -57.9558      1.00000
     23     -57.9558      1.00000
     24     -57.9558      1.00000
     25     -57.9558      1.00000
     26     -57.9558      1.00000
     27     -57.9558      1.00000
     28     -57.9557      1.00000
     29     -57.9557      1.00000
     30     -57.9557      1.00000
     31     -57.9557      1.00000
     32     -57.9432      1.00000
     33     -57.9432      1.00000
     34     -57.9432      1.00000
     35     -57.9432      1.00000
     36     -57.9432      1.00000
     37     -57.9432      1.00000
     38     -57.9431      1.00000
     39     -57.9431      1.00000
     40     -57.9431      1.00000
     41     -57.9431      1.00000
     42     -57.9431      1.00000
     43     -57.9431      1.00000
     44     -57.9374      1.00000
     45     -57.9374      1.00000
     46     -57.9374      1.00000
     47     -57.9374      1.00000
     48     -57.9374      1.00000
     49     -57.9374      1.00000
     50     -57.9374      1.00000
     51     -57.9374      1.00000
     52     -57.9374      1.00000
     53     -57.9374      1.00000
     54     -57.9374      1.00000
     55     -57.9374      1.00000
     56     -57.9192      1.00000
     57     -57.9192      1.00000
     58     -57.9192      1.00000
     59     -57.9192      1.00000
     60     -57.9192      1.00000
     61     -57.9192      1.00000
     62     -57.9192      1.00000
     63     -57.9192      1.00000
     64     -57.9170      1.00000
     65     -57.9170      1.00000
     66     -57.9170      1.00000
     67     -57.9170      1.00000
     68     -57.9170      1.00000
     69     -57.9170      1.00000
     70     -57.9114      1.00000
     71     -57.9114      1.00000
     72     -57.9114      1.00000
     73     -57.9114      1.00000
     74     -57.9114      1.00000
     75     -57.9114      1.00000
     76     -57.9114      1.00000
     77     -57.9114      1.00000
     78     -57.9114      1.00000
     79     -57.9114      1.00000
     80     -57.9114      1.00000
     81     -57.9114      1.00000
     82     -57.9092      1.00000
     83     -57.9092      1.00000
     84     -57.9092      1.00000
     85     -57.9092      1.00000
     86     -57.9092      1.00000
     87     -57.9092      1.00000
     88     -57.9091      1.00000
     89     -57.9091      1.00000
     90     -57.9091      1.00000
     91     -57.9091      1.00000
     92     -57.9091      1.00000
     93     -57.9091      1.00000
     94     -57.9091      1.00000
     95     -57.9091      1.00000
     96     -57.9091      1.00000
     97     -57.9091      1.00000
     98     -57.9091      1.00000
     99     -57.9091      1.00000
    100     -57.9091      1.00000
    101     -57.9091      1.00000
    102     -57.9091      1.00000
    103     -57.9091      1.00000
    104     -57.9091      1.00000
    105     -57.9091      1.00000
    106     -57.9068      1.00000
    107     -57.9068      1.00000
    108     -57.9068      1.00000
    109     -57.9068      1.00000
    110     -57.9068      1.00000
    111     -57.9068      1.00000
    112     -57.9065      1.00000
    113     -57.9065      1.00000
    114     -57.9065      1.00000
    115     -57.9064      1.00000
    116     -57.9064      1.00000
    117     -57.9064      1.00000
    118     -57.8937      1.00000
    119     -57.8937      1.00000
    120     -57.8937      1.00000
    121     -57.8937      1.00000
    122     -57.8937      1.00000
    123     -57.8937      1.00000
    124     -57.8937      1.00000
    125     -57.8937      1.00000
    126     -57.8937      1.00000
    127     -57.8937      1.00000
    128     -57.8937      1.00000
    129     -57.8937      1.00000
    130     -57.8937      1.00000
    131     -57.8937      1.00000
    132     -57.8937      1.00000
    133     -57.8937      1.00000
    134     -57.8937      1.00000
    135     -57.8937      1.00000
    136     -57.8937      1.00000
    137     -57.8937      1.00000
    138     -57.8937      1.00000
    139     -57.8937      1.00000
    140     -57.8936      1.00000
    141     -57.8936      1.00000
    142     -57.8854      1.00000
    143     -57.8854      1.00000
    144     -57.8854      1.00000
    145     -57.8854      1.00000
    146     -57.8854      1.00000
    147     -57.8854      1.00000
    148     -57.8853      1.00000
    149     -57.8853      1.00000
    150     -57.8853      1.00000
    151     -57.8853      1.00000
    152     -57.8853      1.00000
    153     -57.8853      1.00000
    154     -57.8809      1.00000
    155     -57.8809      1.00000
    156     -57.8809      1.00000
    157     -57.8809      1.00000
    158     -57.8809      1.00000
    159     -57.8809      1.00000
    160     -57.8809      1.00000
    161     -57.8809      1.00000
    162     -57.8809      1.00000
    163     -57.8808      1.00000
    164     -57.8808      1.00000
    165     -57.8808      1.00000
    166     -57.8808      1.00000
    167     -57.8808      1.00000
    168     -57.8808      1.00000
    169     -57.8808      1.00000
    170     -57.8808      1.00000
    171     -57.8808      1.00000
    172     -57.8808      1.00000
    173     -57.8808      1.00000
    174     -57.8727      1.00000
    175     -57.8727      1.00000
    176     -57.8727      1.00000
    177     -57.8727      1.00000
    178     -57.8727      1.00000
    179     -57.8727      1.00000
    180     -57.8726      1.00000
    181     -57.8726      1.00000
    182     -57.8726      1.00000
    183     -57.8726      1.00000
    184     -57.8726      1.00000
    185     -57.8726      1.00000
    186     -57.8726      1.00000
    187     -57.8726      1.00000
    188     -57.8726      1.00000
    189     -57.8726      1.00000
    190     -57.8645      1.00000
    191     -57.8644      1.00000
    192     -57.8644      1.00000
    193      -2.0580      1.00000
    194      -0.0750      1.00000
    195      -0.0750      1.00000
    196      -0.0749      1.00000
    197      -0.0749      1.00000
    198      -0.0749      1.00000
    199      -0.0749      1.00000
    200      -0.0749      1.00000
    201      -0.0749      1.00000
    202       0.5284      1.00000
    203       0.5284      1.00000
    204       0.5284      1.00000
    205       0.5284      1.00000
    206       0.5284      1.00000
    207       0.5284      1.00000
    208       1.8031      1.00000
    209       1.8032      1.00000
    210       1.8032      1.00000
    211       1.8032      1.00000
    212       2.0534      1.00000
    213       2.0534      1.00000
    214       2.0534      1.00000
    215       2.2433      1.00000
    216       2.2433      1.00000
    217       2.2433      1.00000
    218       2.2433      1.00000
    219       2.2433      1.00000
    220       2.2433      1.00000
    221       2.2434      1.00000
    222       2.2434      1.00000
    223       2.2434      1.00000
    224       2.2434      1.00000
    225       2.2434      1.00000
    226       2.2434      1.00000
    227       2.3869      1.00000
    228       2.3869      1.00000
    229       2.3869      1.00000
    230       2.4422      1.00000
    231       2.4422      1.00000
    232       2.4422      1.00000
    233       2.4422      1.00000
    234       2.4422      1.00000
    235       2.4422      1.00000
    236       2.4423      1.00000
    237       2.4423      1.00000
    238       2.4423      1.00000
    239       2.4423      1.00000
    240       2.4423      1.00000
    241       2.4423      1.00000
    242       2.4423      1.00000
    243       2.4423      1.00000
    244       2.4423      1.00000
    245       2.4423      1.00000
    246       2.4423      1.00000
    247       2.4423      1.00000
    248       2.4423      1.00000
    249       2.4423      1.00000
    250       2.4423      1.00000
    251       2.4423      1.00000
    252       2.4423      1.00000
    253       2.4423      1.00000
    254       2.7633      1.00000
    255       2.7633      1.00000
    256       2.7633      1.00000
    257       2.7633      1.00000
    258       2.7633      1.00000
    259       2.7633      1.00000
    260       2.9883      1.00000
    261       2.9883      1.00000
    262       2.9883      1.00000
    263       2.9883      1.00000
    264       2.9883      1.00000
    265       2.9883      1.00000
    266       2.9883      1.00000
    267       2.9883      1.00000
    268       2.9883      1.00000
    269       2.9883      1.00000
    270       2.9883      1.00000
    271       2.9883      1.00000
    272       2.9883      1.00000
    273       2.9883      1.00000
    274       2.9883      1.00000
    275       2.9883      1.00000
    276       2.9883      1.00000
    277       2.9883      1.00000
    278       2.9883      1.00000
    279       2.9883      1.00000
    280       2.9883      1.00000
    281       2.9884      1.00000
    282       2.9884      1.00000
    283       2.9884      1.00000
    284       3.0338      1.00000
    285       3.0338      1.00000
    286       3.0338      1.00000
    287       3.0338      1.00000
    288       3.0338      1.00000
    289       3.0338      1.00000
    290       3.2515      1.00000
    291       3.2515      1.00000
    292       3.2515      1.00000
    293       3.2515      1.00000
    294       3.2515      1.00000
    295       3.2515      1.00000
    296       3.2515      1.00000
    297       3.2515      1.00000
    298       3.2515      1.00000
    299       3.2515      1.00000
    300       3.2515      1.00000
    301       3.2515      1.00000
    302       3.2532      1.00000
    303       3.2532      1.00000
    304       3.2532      1.00000
    305       3.2532      1.00000
    306       3.2532      1.00000
    307       3.2532      1.00000
    308       3.2532      1.00000
    309       3.2532      1.00000
    310       3.2532      1.00000
    311       3.2532      1.00000
    312       3.2532      1.00000
    313       3.2532      1.00000
    314       3.4941      1.00000
    315       3.4941      1.00000
    316       3.4941      1.00000
    317       3.4941      1.00000
    318       3.4941      1.00000
    319       3.4941      1.00000
    320       3.4941      1.00000
    321       3.4941      1.00000
    322       3.5201      1.00000
    323       3.5201      1.00000
    324       3.5201      1.00000
    325       3.5201      1.00000
    326       3.5201      1.00000
    327       3.5201      1.00000
    328       3.5201      1.00000
    329       3.5201      1.00000
    330       3.5201      1.00000
    331       3.5201      1.00000
    332       3.5201      1.00000
    333       3.5201      1.00000
    334       3.7211      1.00000
    335       3.7212      1.00000
    336       3.7212      1.00000
    337       3.7504      1.00000
    338       3.7504      1.00000
    339       3.7504      1.00000
    340       3.7504      1.00000
    341       3.7504      1.00000
    342       3.7504      1.00000
    343       3.7504      1.00000
    344       3.7504      1.00000
    345       3.7761      1.00000
    346       3.7761      1.00000
    347       3.7761      1.00000
    348       3.7761      1.00000
    349       3.7761      1.00000
    350       3.7761      1.00000
    351       3.7762      1.00000
    352       3.7762      1.00000
    353       3.7762      1.00000
    354       3.7762      1.00000
    355       3.7762      1.00000
    356       3.7762      1.00000
    357       3.7762      1.00000
    358       3.7762      1.00000
    359       3.7762      1.00000
    360       3.7762      1.00000
    361       3.7762      1.00000
    362       3.7762      1.00000
    363       3.7762      1.00000
    364       3.7762      1.00000
    365       3.7762      1.00000
    366       3.7762      1.00000
    367       3.7762      1.00000
    368       3.7762      1.00000
    369       3.9008      1.00000
    370       3.9008      1.00000
    371       3.9008      1.00000
    372       3.9008      1.00000
    373       3.9008      1.00000
    374       3.9008      1.00000
    375       3.9008      1.00000
    376       3.9008      1.00000
    377       3.9008      1.00000
    378       3.9008      1.00000
    379       3.9008      1.00000
    380       3.9008      1.00000
    381       3.9008      1.00000
    382       3.9008      1.00000
    383       3.9008      1.00000
    384       3.9008      1.00000
    385       4.1862      1.00000
    386       4.1862      1.00000
    387       4.1862      1.00000
    388       4.1862      1.00000
    389       4.1862      1.00000
    390       4.1862      1.00000
    391       4.3118      1.00000
    392       4.3118      1.00000
    393       4.3118      1.00000
    394       4.3118      1.00000
    395       4.3118      1.00000
    396       4.3118      1.00000
    397       4.3118      1.00000
    398       4.3118      1.00000
    399       4.3118      1.00000
    400       4.3118      1.00000
    401       4.3118      1.00000
    402       4.3118      1.00000
    403       4.3612      1.00000
    404       4.3612      1.00000
    405       4.3612      1.00000
    406       4.3612      1.00000
    407       4.3612      1.00000
    408       4.3612      1.00000
    409       4.3612      1.00000
    410       4.3612      1.00000
    411       4.3612      1.00000
    412       4.3612      1.00000
    413       4.3612      1.00000
    414       4.3612      1.00000
    415       4.4054      1.00000
    416       4.4054      1.00000
    417       4.4054      1.00000
    418       4.4054      1.00000
    419       4.4054      1.00000
    420       4.4054      1.00000
    421       4.4054      1.00000
    422       4.4054      1.00000
    423       4.4054      1.00000
    424       4.4054      1.00000
    425       4.4054      1.00000
    426       4.4054      1.00000
    427       4.4054      1.00000
    428       4.4054      1.00000
    429       4.4054      1.00000
    430       4.4054      1.00000
    431       4.4054      1.00000
    432       4.4054      1.00000
    433       4.4055      1.00000
    434       4.4055      1.00000
    435       4.4055      1.00000
    436       4.4055      1.00000
    437       4.4055      1.00000
    438       4.4055      1.00000
    439       4.5153      1.00000
    440       4.5153      1.00000
    441       4.5153      1.00000
    442       4.5153      1.00000
    443       4.5153      1.00000
    444       4.5153      1.00000
    445       4.5153      1.00000
    446       4.5153      1.00000
    447       4.5153      1.00000
    448       4.5153      1.00000
    449       4.5153      1.00000
    450       4.5153      1.00000
    451       4.5885      1.00000
    452       4.5885      1.00000
    453       4.5885      1.00000
    454       4.5885      1.00000
    455       4.5885      1.00000
    456       4.5885      1.00000
    457       4.6274      1.00000
    458       4.6274      1.00000
    459       4.6780      1.00000
    460       4.6780      1.00000
    461       4.6780      1.00000
    462       4.6780      1.00000
    463       4.6780      1.00000
    464       4.6780      1.00000
    465       4.6780      1.00000
    466       4.6780      1.00000
    467       4.6780      1.00000
    468       4.6780      1.00000
    469       4.6780      1.00000
    470       4.6780      1.00000
    471       4.6780      1.00000
    472       4.6780      1.00000
    473       4.6780      1.00000
    474       4.6780      1.00000
    475       4.8928      1.00000
    476       4.8928      1.00000
    477       4.8928      1.00000
    478       4.8928      1.00000
    479       4.8928      1.00000
    480       4.8928      1.00000
    481       5.1172      1.00000
    482       5.1172      1.00000
    483       5.1172      1.00000
    484       5.1172      1.00000
    485       5.1172      1.00000
    486       5.1173      1.00000
    487       5.1173      1.00000
    488       5.1173      1.00000
    489       5.1521      1.00001
    490       5.1521      1.00001
    491       5.1521      1.00001
    492       5.1521      1.00001
    493       5.1521      1.00001
    494       5.1521      1.00001
    495       5.1522      1.00001
    496       5.1522      1.00001
    497       5.1522      1.00001
    498       5.1522      1.00001
    499       5.1522      1.00001
    500       5.1522      1.00001
    501       5.1522      1.00001
    502       5.1522      1.00001
    503       5.1522      1.00001
    504       5.1522      1.00001
    505       5.1522      1.00001
    506       5.1522      1.00001
    507       5.1522      1.00001
    508       5.1522      1.00001
    509       5.1522      1.00001
    510       5.1522      1.00001
    511       5.1522      1.00001
    512       5.1522      1.00001
    513       5.1653      1.00001
    514       5.1653      1.00001
    515       5.1653      1.00001
    516       5.2066      1.00005
    517       5.2066      1.00005
    518       5.2066      1.00005
    519       5.2066      1.00005
    520       5.2066      1.00005
    521       5.2066      1.00005
    522       5.2077      1.00005
    523       5.2077      1.00005
    524       5.2077      1.00005
    525       5.2077      1.00005
    526       5.2077      1.00005
    527       5.2077      1.00005
    528       5.7985      0.62375
    529       5.7985      0.62375
    530       5.7985      0.62375
    531       5.7986      0.62331
[...]
      3.736500  3.736500  3.736500     0.039607    0.145041   -0.023911  
      5.604750  5.604750  3.736500     0.005865    0.021320    0.003679  
      7.473000  7.473000  3.736500     0.006626    0.047063   -0.060597  
      3.736500  1.868250  5.604750     0.069609    0.071066   -0.103581  
      5.604750  3.736500  5.604750     0.048219    0.018817    0.007832  
      7.473000  5.604750  5.604750     0.012321    0.035168   -0.102494  
      9.341250  7.473000  5.604750     0.033712    0.087417   -0.213907  
      5.604750  1.868250  7.473000     0.030465   -0.012027    0.019048  
      7.473000  3.736500  7.473000     0.006919    0.075795   -0.007455  
      9.341250  5.604750  7.473000    -0.008348    0.118652   -0.164919  
     11.209500  7.473000  7.473000     0.015198    0.030830   -0.138415  
      0.000000  3.736500  3.736500    -0.019052    0.047987    0.035394  
      1.868250  5.604750  3.736500    -0.019812    0.022244    0.099670  
      3.736500  7.473000  3.736500    -0.053555   -0.101477    0.127260  
      5.604750  9.341250  3.736500    -0.052794   -0.075734    0.062984  
      1.868250  3.736500  5.604750     0.022247   -0.008991    0.050682  
      3.736500  5.604750  5.604750     0.000856   -0.061241    0.162095  
      5.604750  7.473000  5.604750    -0.035041   -0.044890    0.051769  
      7.473000  9.341250  5.604750    -0.013650    0.007359   -0.059644  
      3.736500  3.736500  7.473000     0.030858   -0.135215    0.082425  
      5.604750  5.604750  7.473000     0.007312   -0.047393    0.055922  
      7.473000  7.473000  7.473000    -0.007955   -0.004536   -0.101542  
      9.341250  9.341250  7.473000     0.015591   -0.092358   -0.075038  
      5.604750  3.736500  9.341250    -0.010441   -0.078237    0.067137  
      7.473000  5.604750  9.341250    -0.013357    0.036092   -0.006503  
      9.341250  7.473000  9.341250    -0.026468   -0.061123   -0.026050  
     11.209500  9.341250  9.341250    -0.023553   -0.175452    0.047591  
      0.000000  5.604750  5.604750    -0.012321   -0.035168    0.102494  
      1.868250  7.473000  5.604750    -0.033712   -0.087417    0.213907  
      3.736500  9.341250  5.604750    -0.069609   -0.071066    0.103581  
      5.604750 11.209500  5.604750    -0.048219   -0.018817   -0.007832  
      1.868250  5.604750  7.473000     0.008348   -0.118652    0.164919  
      3.736500  7.473000  7.473000    -0.015198   -0.030830    0.138415  
      5.604750  9.341250  7.473000    -0.030465    0.012027   -0.019048  
      7.473000 11.209500  7.473000    -0.006919   -0.075795    0.007455  
      3.736500  5.604750  9.341250     0.014804   -0.104804    0.058745  
      5.604750  7.473000  9.341250     0.011888    0.009524   -0.014895  
      7.473000  9.341250  9.341250    -0.001224   -0.087691   -0.034442  
      9.341250 11.209500  9.341250     0.001692   -0.202019    0.039198  
      5.604750  5.604750 11.209500    -0.005865   -0.021320   -0.003679  
      7.473000  7.473000 11.209500    -0.006626   -0.047063    0.060597  
      9.341250  9.341250 11.209500    -0.040368   -0.170784    0.088187  
     11.209500 11.209500 11.209500    -0.039607   -0.145041    0.023911  
 
 190 f/i=    0.000001 THz     0.000008 2PiTHz    0.000041 cm-1     0.000005 meV
             X         Y         Z           dx          dy          dz
      0.000000  0.000000  0.000000     0.100835   -0.073782   -0.003669  
      1.868250  1.868250  0.000000     0.100835   -0.073782   -0.003669  
      3.736500  3.736500  0.000000     0.100835   -0.073782   -0.003669  
      5.604750  5.604750  0.000000     0.100835   -0.073782   -0.003669  
      1.868250  0.000000  1.868250     0.100835   -0.073782   -0.003669  
      3.736500  1.868250  1.868250     0.100835   -0.073782   -0.003669  
      5.604750  3.736500  1.868250     0.100835   -0.073782   -0.003669  
      7.473000  5.604750  1.868250     0.100835   -0.073782   -0.003669  
      3.736500  0.000000  3.736500     0.100835   -0.073782   -0.003669  
      5.604750  1.868250  3.736500     0.100835   -0.073782   -0.003669  
      7.473000  3.736500  3.736500     0.100835   -0.073782   -0.003669  
      9.341250  5.604750  3.736500     0.100835   -0.073782   -0.003669  
      5.604750  0.000000  5.604750     0.100835   -0.073782   -0.003669  
      7.473000  1.868250  5.604750     0.100835   -0.073782   -0.003669  
      9.341250  3.736500  5.604750     0.100835   -0.073782   -0.003669  
     11.209500  5.604750  5.604750     0.100835   -0.073782   -0.003669  
      0.000000  1.868250  1.868250     0.100835   -0.073782   -0.003669  
      1.868250  3.736500  1.868250     0.100835   -0.073782   -0.003669  
      3.736500  5.604750  1.868250     0.100835   -0.073782   -0.003669  
      5.604750  7.473000  1.868250     0.100835   -0.073782   -0.003669  
      1.868250  1.868250  3.736500     0.100835   -0.073782   -0.003669  
      3.736500  3.736500  3.736500     0.100835   -0.073782   -0.003669  
      5.604750  5.604750  3.736500     0.100835   -0.073782   -0.003669  
      7.473000  7.473000  3.736500     0.100835   -0.073782   -0.003669  
      3.736500  1.868250  5.604750     0.100835   -0.073782   -0.003669  
      5.604750  3.736500  5.604750     0.100835   -0.073782   -0.003669  
      7.473000  5.604750  5.604750     0.100835   -0.073782   -0.003669  
      9.341250  7.473000  5.604750     0.100835   -0.073782   -0.003669  
      5.604750  1.868250  7.473000     0.100835   -0.073782   -0.003669  
      7.473000  3.736500  7.473000     0.100835   -0.073782   -0.003669  
      9.341250  5.604750  7.473000     0.100835   -0.073782   -0.003669  
     11.209500  7.473000  7.473000     0.100835   -0.073782   -0.003669  
      0.000000  3.736500  3.736500     0.100835   -0.073782   -0.003669  
      1.868250  5.604750  3.736500     0.100835   -0.073782   -0.003669  
      3.736500  7.473000  3.736500     0.100835   -0.073782   -0.003669  
      5.604750  9.341250  3.736500     0.100835   -0.073782   -0.003669  
      1.868250  3.736500  5.604750     0.100835   -0.073782   -0.003669  
      3.736500  5.604750  5.604750     0.100835   -0.073782   -0.003669  
      5.604750  7.473000  5.604750     0.100835   -0.073782   -0.003669  
      7.473000  9.341250  5.604750     0.100835   -0.073782   -0.003669  
      3.736500  3.736500  7.473000     0.100835   -0.073782   -0.003669  
      5.604750  5.604750  7.473000     0.100835   -0.073782   -0.003669  
      7.473000  7.473000  7.473000     0.100835   -0.073782   -0.003669  
      9.341250  9.341250  7.473000     0.100835   -0.073782   -0.003669  
      5.604750  3.736500  9.341250     0.100835   -0.073782   -0.003669  
      7.473000  5.604750  9.341250     0.100835   -0.073782   -0.003669  
      9.341250  7.473000  9.341250     0.100835   -0.073782   -0.003669  
     11.209500  9.341250  9.341250     0.100835   -0.073782   -0.003669  
      0.000000  5.604750  5.604750     0.100835   -0.073782   -0.003669  
      1.868250  7.473000  5.604750     0.100835   -0.073782   -0.003669  
      3.736500  9.341250  5.604750     0.100835   -0.073782   -0.003669  
      5.604750 11.209500  5.604750     0.100835   -0.073782   -0.003669  
      1.868250  5.604750  7.473000     0.100835   -0.073782   -0.003669  
      3.736500  7.473000  7.473000     0.100835   -0.073782   -0.003669  
      5.604750  9.341250  7.473000     0.100835   -0.073782   -0.003669  
      7.473000 11.209500  7.473000     0.100835   -0.073782   -0.003669  
      3.736500  5.604750  9.341250     0.100835   -0.073782   -0.003669  
      5.604750  7.473000  9.341250     0.100835   -0.073782   -0.003669  
      7.473000  9.341250  9.341250     0.100835   -0.073782   -0.003669  
      9.341250 11.209500  9.341250     0.100835   -0.073782   -0.003669  
      5.604750  5.604750 11.209500     0.100835   -0.073782   -0.003669  
      7.473000  7.473000 11.209500     0.100835   -0.073782   -0.003669  
      9.341250  9.341250 11.209500     0.100835   -0.073782   -0.003669  
     11.209500 11.209500 11.209500     0.100835   -0.073782   -0.003669  
 
 191 f/i=    0.000001 THz     0.000008 2PiTHz    0.000041 cm-1     0.000005 meV
             X         Y         Z           dx          dy          dz
      0.000000  0.000000  0.000000    -0.002966    0.002160   -0.124946  
      1.868250  1.868250  0.000000    -0.002966    0.002160   -0.124946  
      3.736500  3.736500  0.000000    -0.002966    0.002160   -0.124946  
      5.604750  5.604750  0.000000    -0.002966    0.002160   -0.124946  
      1.868250  0.000000  1.868250    -0.002966    0.002160   -0.124946  
      3.736500  1.868250  1.868250    -0.002966    0.002160   -0.124946  
      5.604750  3.736500  1.868250    -0.002966    0.002160   -0.124946  
      7.473000  5.604750  1.868250    -0.002966    0.002160   -0.124946  
      3.736500  0.000000  3.736500    -0.002966    0.002160   -0.124946  
      5.604750  1.868250  3.736500    -0.002966    0.002160   -0.124946  
      7.473000  3.736500  3.736500    -0.002966    0.002160   -0.124946  
      9.341250  5.604750  3.736500    -0.002966    0.002160   -0.124946  
      5.604750  0.000000  5.604750    -0.002966    0.002160   -0.124946  
      7.473000  1.868250  5.604750    -0.002966    0.002160   -0.124946  
      9.341250  3.736500  5.604750    -0.002966    0.002160   -0.124946  
     11.209500  5.604750  5.604750    -0.002966    0.002160   -0.124946  
      0.000000  1.868250  1.868250    -0.002966    0.002160   -0.124946  
      1.868250  3.736500  1.868250    -0.002966    0.002160   -0.124946  
      3.736500  5.604750  1.868250    -0.002966    0.002160   -0.124946  
      5.604750  7.473000  1.868250    -0.002966    0.002160   -0.124946  
      1.868250  1.868250  3.736500    -0.002966    0.002160   -0.124946  
      3.736500  3.736500  3.736500    -0.002966    0.002160   -0.124946  
      5.604750  5.604750  3.736500    -0.002966    0.002160   -0.124946  
      7.473000  7.473000  3.736500    -0.002966    0.002160   -0.124946  
      3.736500  1.868250  5.604750    -0.002966    0.002160   -0.124946  
      5.604750  3.736500  5.604750    -0.002966    0.002160   -0.124946  
      7.473000  5.604750  5.604750    -0.002966    0.002160   -0.124946  
      9.341250  7.473000  5.604750    -0.002966    0.002160   -0.124946  
      5.604750  1.868250  7.473000    -0.002966    0.002160   -0.124946  
      7.473000  3.736500  7.473000    -0.002966    0.002160   -0.124946  
      9.341250  5.604750  7.473000    -0.002966    0.002160   -0.124946  
     11.209500  7.473000  7.473000    -0.002966    0.002160   -0.124946  
      0.000000  3.736500  3.736500    -0.002966    0.002160   -0.124946  
      1.868250  5.604750  3.736500    -0.002966    0.002160   -0.124946  
      3.736500  7.473000  3.736500    -0.002966    0.002160   -0.124946  
      5.604750  9.341250  3.736500    -0.002966    0.002160   -0.124946  
      1.868250  3.736500  5.604750    -0.002966    0.002160   -0.124946  
      3.736500  5.604750  5.604750    -0.002966    0.002160   -0.124946  
      5.604750  7.473000  5.604750    -0.002966    0.002160   -0.124946  
      7.473000  9.341250  5.604750    -0.002966    0.002160   -0.124946  
      3.736500  3.736500  7.473000    -0.002966    0.002160   -0.124946  
      5.604750  5.604750  7.473000    -0.002966    0.002160   -0.124946  
      7.473000  7.473000  7.473000    -0.002966    0.002160   -0.124946  
      9.341250  9.341250  7.473000    -0.002966    0.002160   -0.124946  
      5.604750  3.736500  9.341250    -0.002966    0.002160   -0.124946  
      7.473000  5.604750  9.341250    -0.002966    0.002160   -0.124946  
      9.341250  7.473000  9.341250    -0.002966    0.002160   -0.124946  
     11.209500  9.341250  9.341250    -0.002966    0.002160   -0.124946  
      0.000000  5.604750  5.604750    -0.002966    0.002160   -0.124946  
      1.868250  7.473000  5.604750    -0.002966    0.002160   -0.124946  
      3.736500  9.341250  5.604750    -0.002966    0.002160   -0.124946  
      5.604750 11.209500  5.604750    -0.002966    0.002160   -0.124946  
      1.868250  5.604750  7.473000    -0.002966    0.002160   -0.124946  
      3.736500  7.473000  7.473000    -0.002966    0.002160   -0.124946  
      5.604750  9.341250  7.473000    -0.002966    0.002160   -0.124946  
      7.473000 11.209500  7.473000    -0.002966    0.002160   -0.124946  
      3.736500  5.604750  9.341250    -0.002966    0.002160   -0.124946  
      5.604750  7.473000  9.341250    -0.002966    0.002160   -0.124946  
      7.473000  9.341250  9.341250    -0.002966    0.002160   -0.124946  
      9.341250 11.209500  9.341250    -0.002966    0.002160   -0.124946  
      5.604750  5.604750 11.209500    -0.002966    0.002160   -0.124946  
      7.473000  7.473000 11.209500    -0.002966    0.002160   -0.124946  
      9.341250  9.341250 11.209500    -0.002966    0.002160   -0.124946  
     11.209500 11.209500 11.209500    -0.002966    0.002160   -0.124946  
 
 192 f/i=    0.000001 THz     0.000008 2PiTHz    0.000042 cm-1     0.000005 meV
             X         Y         Z           dx          dy          dz
      0.000000  0.000000  0.000000     0.073813    0.100879   -0.000008  
      1.868250  1.868250  0.000000     0.073813    0.100879   -0.000008  
      3.736500  3.736500  0.000000     0.073813    0.100879   -0.000008  
      5.604750  5.604750  0.000000     0.073813    0.100879   -0.000008  
      1.868250  0.000000  1.868250     0.073813    0.100879   -0.000008  
      3.736500  1.868250  1.868250     0.073813    0.100879   -0.000008  
      5.604750  3.736500  1.868250     0.073813    0.100879   -0.000008  
      7.473000  5.604750  1.868250     0.073813    0.100879   -0.000008  
      3.736500  0.000000  3.736500     0.073813    0.100879   -0.000008  
      5.604750  1.868250  3.736500     0.073813    0.100879   -0.000008  
      7.473000  3.736500  3.736500     0.073813    0.100879   -0.000008  
      9.341250  5.604750  3.736500     0.073813    0.100879   -0.000008  
      5.604750  0.000000  5.604750     0.073813    0.100879   -0.000008  
      7.473000  1.868250  5.604750     0.073813    0.100879   -0.000008  
      9.341250  3.736500  5.604750     0.073813    0.100879   -0.000008  
     11.209500  5.604750  5.604750     0.073813    0.100879   -0.000008  
      0.000000  1.868250  1.868250     0.073813    0.100879   -0.000008  
      1.868250  3.736500  1.868250     0.073813    0.100879   -0.000008  
      3.736500  5.604750  1.868250     0.073813    0.100879   -0.000008  
      5.604750  7.473000  1.868250     0.073813    0.100879   -0.000008  
      1.868250  1.868250  3.736500     0.073813    0.100879   -0.000008  
      3.736500  3.736500  3.736500     0.073813    0.100879   -0.000008  
      5.604750  5.604750  3.736500     0.073813    0.100879   -0.000008  
      7.473000  7.473000  3.736500     0.073813    0.100879   -0.000008  
      3.736500  1.868250  5.604750     0.073813    0.100879   -0.000008  
      5.604750  3.736500  5.604750     0.073813    0.100879   -0.000008  
      7.473000  5.604750  5.604750     0.073813    0.100879   -0.000008  
      9.341250  7.473000  5.604750     0.073813    0.100879   -0.000008  
      5.604750  1.868250  7.473000     0.073813    0.100879   -0.000008  
      7.473000  3.736500  7.473000     0.073813    0.100879   -0.000008  
      9.341250  5.604750  7.473000     0.073813    0.100879   -0.000008  
     11.209500  7.473000  7.473000     0.073813    0.100879   -0.000008  
      0.000000  3.736500  3.736500     0.073813    0.100879   -0.000008  
      1.868250  5.604750  3.736500     0.073813    0.100879   -0.000008  
      3.736500  7.473000  3.736500     0.073813    0.100879   -0.000008  
      5.604750  9.341250  3.736500     0.073813    0.100879   -0.000008  
      1.868250  3.736500  5.604750     0.073813    0.100879   -0.000008  
      3.736500  5.604750  5.604750     0.073813    0.100879   -0.000008  
      5.604750  7.473000  5.604750     0.073813    0.100879   -0.000008  
      7.473000  9.341250  5.604750     0.073813    0.100879   -0.000008  
      3.736500  3.736500  7.473000     0.073813    0.100879   -0.000008  
      5.604750  5.604750  7.473000     0.073813    0.100879   -0.000008  
      7.473000  7.473000  7.473000     0.073813    0.100879   -0.000008  
      9.341250  9.341250  7.473000     0.073813    0.100879   -0.000008  
      5.604750  3.736500  9.341250     0.073813    0.100879   -0.000008  
      7.473000  5.604750  9.341250     0.073813    0.100879   -0.000008  
      9.341250  7.473000  9.341250     0.073813    0.100879   -0.000008  
     11.209500  9.341250  9.341250     0.073813    0.100879   -0.000008  
      0.000000  5.604750  5.604750     0.073813    0.100879   -0.000008  
      1.868250  7.473000  5.604750     0.073813    0.100879   -0.000008  
      3.736500  9.341250  5.604750     0.073813    0.100879   -0.000008  
      5.604750 11.209500  5.604750     0.073813    0.100879   -0.000008  
      1.868250  5.604750  7.473000     0.073813    0.100879   -0.000008  
      3.736500  7.473000  7.473000     0.073813    0.100879   -0.000008  
      5.604750  9.341250  7.473000     0.073813    0.100879   -0.000008  
      7.473000 11.209500  7.473000     0.073813    0.100879   -0.000008  
      3.736500  5.604750  9.341250     0.073813    0.100879   -0.000008  
      5.604750  7.473000  9.341250     0.073813    0.100879   -0.000008  
      7.473000  9.341250  9.341250     0.073813    0.100879   -0.000008  
      9.341250 11.209500  9.341250     0.073813    0.100879   -0.000008  
      5.604750  5.604750 11.209500     0.073813    0.100879   -0.000008  
      7.473000  7.473000 11.209500     0.073813    0.100879   -0.000008  
      9.341250  9.341250 11.209500     0.073813    0.100879   -0.000008  
     11.209500 11.209500 11.209500     0.073813    0.100879   -0.000008  
 


--------------------------------------------------------------------------------------------------------



 ELASTIC MODULI IONIC CONTR (kBar)
 Direction    XX          YY          ZZ          XY          YZ          ZX
 --------------------------------------------------------------------------------
 XX           0.0000      0.0000     -0.0000      0.0000     -0.0000     -0.0000
 YY          -0.0000     -0.0000     -0.0000      0.0000     -0.0000      0.0000
 ZZ           0.0000     -0.0000     -0.0000      0.0000     -0.0000     -0.0000
 XY          -0.0000      0.0000      0.0000     -0.0000      0.0000      0.0000
 YZ          -0.0000     -0.0000     -0.0000      0.0000     -0.0000     -0.0000
 ZX          -0.0000      0.0000     -0.0000     -0.0000      0.0000     -0.0000
 --------------------------------------------------------------------------------



--------------------------------------------------------------------------------------------------------


 writing wavefunctions
     LOOP+:  cpu time 9745.7404: real time 9738.2854
    4ORBIT:  cpu time    0.0000: real time    0.0000

 total amount of memory used by VASP on root node   339337. kBytes
========================================================================

   base      :      30000. kBytes
   nonl-proj :      30028. kBytes
   fftplans  :      11110. kBytes
   grid      :      59679. kBytes
   one-center:       1990. kBytes
   wavefun   :     206530. kBytes
 
  
  
 General timing and accounting informations for this job:
 ========================================================
  
                  Total CPU time used (sec):     9773.418
                            User time (sec):     9758.679
                          System time (sec):       14.739
                         Elapsed time (sec):     9765.961
  
                   Maximum memory used (kb):     1255496.
                   Average memory used (kb):           0.
  
                          Minor page faults:       111214
                          Major page faults:            1
                 Voluntary context switches:         1119
