<?xml version="1.0" encoding="ISO-8859-1"?>
<modeling>
 <generator>
  <i name="program" type="string">vasp </i>
  <i name="version" type="string">5.4.1  </i>
  <i name="subversion" type="string">05Feb16 (build Oct 12 2016 17:31:35) complex                          parallel </i>
  <i name="platform" type="string">IFC91_ompi </i>
  <i name="date" type="string">2020 09 09 </i>
  <i name="time" type="string">04:10:24 </i>
 </generator>
 <incar>
  <i type="string" name="SYSTEM"> phonon of Zr bcc - omiga</i>
  <i type="string" name="PREC">h</i>
  <i type="int" name="ISPIN">     2</i>
  <i type="int" name="IBRION">     8</i>
  <i name="EDIFF">      0.00000100</i>
  <i type="int" name="NSW">     1</i>
  <v name="MAGMOM">      1.00000000      1.00000000      1.00000000      1.00000000      1.00000000      1.00000000      1.00000000      1.00000000      1.00000000      1.00000000      1.00000000      1.00000000      1.00000000      1.00000000      1.00000000      1.00000000      1.00000000      1.00000000      1.00000000      1.00000000
      1.00000000      1.00000000      1.00000000      1.00000000      1.00000000      1.00000000      1.00000000      1.00000000      1.00000000      1.00000000      1.00000000      1.00000000      1.00000000      1.00000000      1.00000000      1.00000000      1.00000000      1.00000000      1.00000000      1.00000000
      1.00000000      1.00000000      1.00000000      1.00000000      1.00000000      1.00000000      1.00000000      1.00000000      1.00000000      1.00000000      1.00000000      1.00000000      1.00000000      1.00000000      1.00000000      1.00000000      1.00000000      1.00000000      1.00000000      1.00000000
      1.00000000      1.00000000      1.00000000      1.00000000</v>
  <i type="int" name="ISMEAR">     1</i>
  <i type="int" name="NWRITE">     0</i>
  <v type="int" name="KPOINT_BSE">    -1     0     0     0</v>
 </incar>
 <kpoints>
  <generation param="Gamma">
   <v type="int" name="divisions">       3        3        3 </v>
   <v name="usershift">      0.00000000       0.00000000       0.00000000 </v>
   <v name="genvec1">      0.33333333       0.00000000       0.00000000 </v>
   <v name="genvec2">      0.00000000       0.33333333       0.00000000 </v>
   <v name="genvec3">      0.00000000       0.00000000       0.33333333 </v>
   <v name="shift">      0.00000000       0.00000000       0.00000000 </v>
  </generation>
  <varray name="kpointlist" >
   <v>       0.00000000       0.00000000       0.00000000 </v>
   <v>       0.33333333       0.00000000       0.00000000 </v>
   <v>       0.33333333       0.33333333       0.00000000 </v>
   <v>      -0.33333333       0.33333333       0.00000000 </v>
  </varray>
  <varray name="weights" >
   <v>       0.03703704 </v>
   <v>       0.29629630 </v>
   <v>       0.22222222 </v>
   <v>       0.44444444 </v>
  </varray>
 </kpoints>
 <parameters>
  <separator name="general" >
   <i type="string" name="SYSTEM">phonon of Zr bcc - omiga</i>
   <i type="logical" name="LCOMPAT"> F  </i>
  </separator>
  <separator name="electronic" >
   <i type="string" name="PREC">h</i>
   <i name="ENMAX">    459.93125000</i>
   <i name="ENAUG">    703.44300000</i>
   <i name="EDIFF">      0.00000100</i>
   <i type="int" name="IALGO">    38</i>
   <i type="int" name="IWAVPR">    11</i>
   <i type="int" name="NBANDS">   648</i>
   <i name="NELECT">   1024.00000000</i>
   <i type="int" name="TURBO">     0</i>
   <i type="int" name="IRESTART">     0</i>
   <i type="int" name="NREBOOT">     0</i>
   <i type="int" name="NMIN">     0</i>
   <i name="EREF">      0.00000000</i>
   <separator name="electronic smearing" >
    <i type="int" name="ISMEAR">     1</i>
    <i name="SIGMA">      0.20000000</i>
    <i name="KSPACING">      0.50000000</i>
    <i type="logical" name="KGAMMA"> T  </i>
   </separator>
   <separator name="electronic projectors" >
    <i type="logical" name="LREAL"> F  </i>
    <v name="ROPT">      0.00000000</v>
    <i type="int" name="LMAXPAW">  -100</i>
    <i type="int" name="LMAXMIX">     2</i>
    <i type="logical" name="NLSPLINE"> F  </i>
   </separator>
   <separator name="electronic startup" >
    <i type="int" name="ISTART">     0</i>
    <i type="int" name="ICHARG">     2</i>
    <i type="int" name="INIWAV">     1</i>
   </separator>
   <separator name="electronic spin" >
    <i type="int" name="ISPIN">     2</i>
    <i type="logical" name="LNONCOLLINEAR"> F  </i>
    <v name="MAGMOM">      1.00000000      1.00000000      1.00000000      1.00000000      1.00000000      1.00000000      1.00000000      1.00000000      1.00000000      1.00000000      1.00000000      1.00000000      1.00000000      1.00000000      1.00000000      1.00000000      1.00000000      1.00000000      1.00000000      1.00000000
      1.00000000      1.00000000      1.00000000      1.00000000      1.00000000      1.00000000      1.00000000      1.00000000      1.00000000      1.00000000      1.00000000      1.00000000      1.00000000      1.00000000      1.00000000      1.00000000      1.00000000      1.00000000      1.00000000      1.00000000
      1.00000000      1.00000000      1.00000000      1.00000000      1.00000000      1.00000000      1.00000000      1.00000000      1.00000000      1.00000000      1.00000000      1.00000000      1.00000000      1.00000000      1.00000000      1.00000000      1.00000000      1.00000000      1.00000000      1.00000000
      1.00000000      1.00000000      1.00000000      1.00000000</v>
    <i name="NUPDOWN">     -1.00000000</i>
    <i type="logical" name="LSORBIT"> F  </i>
    <v name="SAXIS">      0.00000000      0.00000000      1.00000000</v>
    <i type="logical" name="LSPIRAL"> F  </i>
    <v name="QSPIRAL">      0.00000000      0.00000000      0.00000000</v>
    <i type="logical" name="LZEROZ"> F  </i>
   </separator>
   <separator name="electronic exchange-correlation" >
    <i type="logical" name="LASPH"> F  </i>
    <i type="logical" name="LMETAGGA"> F  </i>
   </separator>
   <separator name="electronic convergence" >
    <i type="int" name="NELM">    60</i>
    <i type="int" name="NELMDL">    -5</i>
    <i type="int" name="NELMIN">     2</i>
    <i name="ENINI">    459.93125000</i>
    <separator name="electronic convergence detail" >
     <i type="logical" name="LDIAG"> T  </i>
     <i type="logical" name="LSUBROT"> F  </i>
     <i name="WEIMIN">      0.00100000</i>
     <i name="EBREAK">      0.00000000</i>
     <i name="DEPER">      0.30000000</i>
     <i type="int" name="NRMM">     4</i>
     <i name="TIME">      0.40000000</i>
    </separator>
   </separator>
   <separator name="electronic mixer" >
    <i name="AMIX">      0.40000000</i>
    <i name="BMIX">      1.00000000</i>
    <i name="AMIN">      0.10000000</i>
    <i name="AMIX_MAG">      1.60000000</i>
    <i name="BMIX_MAG">      1.00000000</i>
    <separator name="electronic mixer details" >
     <i type="int" name="IMIX">     4</i>
     <i type="logical" name="MIXFIRST"> F  </i>
     <i type="int" name="MAXMIX">   -45</i>
     <i name="WC">    100.00000000</i>
     <i type="int" name="INIMIX">     1</i>
     <i type="int" name="MIXPRE">     1</i>
     <i type="int" name="MREMOVE">     5</i>
    </separator>
   </separator>
   <separator name="electronic dipolcorrection" >
    <i type="logical" name="LDIPOL"> F  </i>
    <i type="logical" name="LMONO"> F  </i>
    <i type="int" name="IDIPOL">     0</i>
    <i name="EPSILON">      1.00000000</i>
    <v name="DIPOL">   -100.00000000   -100.00000000   -100.00000000</v>
    <i name="EFIELD">      0.00000000</i>
   </separator>
  </separator>
  <separator name="grids" >
   <i type="int" name="NGX">    80</i>
   <i type="int" name="NGY">    80</i>
   <i type="int" name="NGZ">    80</i>
   <i type="int" name="NGXF">   126</i>
   <i type="int" name="NGYF">   126</i>
   <i type="int" name="NGZF">   126</i>
   <i type="logical" name="ADDGRID"> F  </i>
  </separator>
  <separator name="ionic" >
   <i type="int" name="NSW">     1</i>
   <i type="int" name="IBRION">     8</i>
   <i type="int" name="ISIF">     2</i>
   <i name="PSTRESS">      0.00000000</i>
   <i name="EDIFFG">      0.00001000</i>
   <i type="int" name="NFREE">     0</i>
   <i name="POTIM">      0.50000000</i>
   <i name="SMASS">     -3.00000000</i>
   <i name="SCALEE">      1.00000000</i>
  </separator>
  <separator name="ionic md" >
   <i name="TEBEG">      0.00010000</i>
   <i name="TEEND">      0.00010000</i>
   <i type="int" name="NBLOCK">     1</i>
   <i type="int" name="KBLOCK">     1</i>
   <i type="int" name="NPACO">   256</i>
   <i name="APACO">     16.00000000</i>
  </separator>
  <separator name="symmetry" >
   <i type="int" name="ISYM">     2</i>
   <i name="SYMPREC">      0.00001000</i>
  </separator>
  <separator name="dos" >
   <i type="logical" name="LORBIT"> F  </i>
   <v name="RWIGS">     -1.00000000</v>
   <i type="int" name="NEDOS">   301</i>
   <i name="EMIN">     10.00000000</i>
   <i name="EMAX">    -10.00000000</i>
   <i name="EFERMI">      0.00000000</i>
  </separator>
  <separator name="writing" >
   <i type="int" name="NWRITE">     0</i>
   <i type="logical" name="LWAVE"> T  </i>
   <i type="logical" name="LCHARG"> T  </i>
   <i type="logical" name="LPARD"> F  </i>
   <i type="logical" name="LVTOT"> F  </i>
   <i type="logical" name="LVHAR"> F  </i>
   <i type="logical" name="LELF"> F  </i>
   <i type="logical" name="LOPTICS"> F  </i>
   <v name="STM">      0.00000000      0.00000000      0.00000000      0.00000000      0.00000000      0.00000000      0.00000000</v>
  </separator>
  <separator name="performance" >
   <i type="int" name="NPAR">     8</i>
   <i type="int" name="NSIM">     4</i>
   <i type="int" name="NBLK">    -1</i>
   <i type="logical" name="LPLANE"> T  </i>
   <i type="logical" name="LSCALAPACK"> T  </i>
   <i type="logical" name="LSCAAWARE"> F  </i>
   <i type="logical" name="LSCALU"> F  </i>
   <i type="logical" name="LASYNC"> F  </i>
   <i type="logical" name="LORBITALREAL"> F  </i>
  </separator>
  <separator name="miscellaneous" >
   <i type="int" name="IDIOT">     3</i>
   <i type="logical" name="LMUSIC"> F  </i>
   <v name="POMASS">     58.69000000</v>
   <v name="DARWINR">      0.00000000</v>
   <v name="DARWINV">      1.00000000</v>
   <i type="logical" name="LCORR"> T  </i>
  </separator>
  <i type="logical" name="GGA_COMPAT"> T  </i>
  <i type="logical" name="LBERRY"> F  </i>
  <i type="int" name="ICORELEVEL">     0</i>
  <i type="logical" name="LDAU"> F  </i>
  <i type="int" name="I_CONSTRAINED_M">     0</i>
  <separator name="electronic exchange-correlation" >
   <i type="string" name="GGA">--</i>
   <i type="int" name="VOSKOWN">     0</i>
   <i type="logical" name="LHFCALC"> F  </i>
   <i type="string" name="PRECFOCK"></i>
   <i type="logical" name="LSYMGRAD"> F  </i>
   <i type="logical" name="LHFONE"> F  </i>
   <i type="logical" name="LRHFCALC"> F  </i>
   <i type="logical" name="LTHOMAS"> F  </i>
   <i type="logical" name="LMODELHF"> F  </i>
   <i name="ENCUT4O">     -1.00000000</i>
   <i type="int" name="EXXOEP">     0</i>
   <i type="int" name="FOURORBIT">     0</i>
   <i name="AEXX">      0.00000000</i>
   <i name="HFALPHA">      0.00000000</i>
   <i name="MCALPHA">      0.00000000</i>
   <i name="ALDAX">      1.00000000</i>
   <i name="AGGAX">      1.00000000</i>
   <i name="ALDAC">      1.00000000</i>
   <i name="AGGAC">      1.00000000</i>
   <i type="int" name="NKREDX">     1</i>
   <i type="int" name="NKREDY">     1</i>
   <i type="int" name="NKREDZ">     1</i>
   <i type="logical" name="SHIFTRED"> F  </i>
   <i type="logical" name="ODDONLY"> F  </i>
   <i type="logical" name="EVENONLY"> F  </i>
   <i type="int" name="LMAXFOCK">     0</i>
   <i type="int" name="NMAXFOCKAE">     0</i>
   <i type="logical" name="LFOCKAEDFT"> F  </i>
   <i name="HFSCREEN">      0.00000000</i>
   <i name="HFSCREENC">      0.00000000</i>
   <i type="int" name="NBANDSGWLOW">     0</i>
  </separator>
  <separator name="vdW DFT" >
   <i type="logical" name="LUSE_VDW"> F  </i>
   <i name="Zab_VDW">     -0.84910000</i>
   <i name="PARAM1">      0.12340000</i>
   <i name="PARAM2">      1.00000000</i>
   <i name="PARAM3">      0.00000000</i>
  </separator>
  <separator name="model GW" >
   <i type="int" name="MODEL_GW">     0</i>
   <i name="MODEL_EPS0">      7.82503374</i>
   <i name="MODEL_ALPHA">      1.00000000</i>
  </separator>
  <separator name="linear response parameters" >
   <i type="logical" name="LEPSILON"> F  </i>
   <i type="logical" name="LRPA"> F  </i>
   <i type="logical" name="LNABLA"> F  </i>
   <i type="logical" name="LVEL"> F  </i>
   <i type="int" name="KINTER">     0</i>
   <i name="CSHIFT">      0.10000000</i>
   <i name="OMEGAMAX">     -1.00000000</i>
   <i name="DEG_THRESHOLD">      0.00200000</i>
  </separator>
  <separator name="orbital magnetization" >
   <i type="logical" name="NUCIND"> F  </i>
   <v name="MAGPOS">      0.00000000      0.00000000      0.00000000</v>
   <i type="logical" name="LNICSALL"> T  </i>
   <i type="logical" name="ORBITALMAG"> F  </i>
   <i type="logical" name="LMAGBLOCH"> F  </i>
   <i type="logical" name="LCHIMAG"> F  </i>
   <i type="logical" name="LGAUGE"> T  </i>
   <i type="int" name="MAGATOM">     0</i>
   <v name="MAGDIPOL">      0.00000000      0.00000000      0.00000000</v>
   <v name="AVECCONST">      0.00000000      0.00000000      0.00000000</v>
  </separator>
  <separator name="response functions" >
   <i type="logical" name="LADDER"> F  </i>
   <i type="logical" name="LFXC"> F  </i>
   <i type="logical" name="LHARTREE"> T  </i>
   <i type="int" name="IBSE">     0</i>
   <v type="int" name="KPOINT">    -1     0     0     0</v>
   <i type="logical" name="LTCTE"> F  </i>
   <i type="logical" name="LTETE"> F  </i>
   <i type="logical" name="LTRIPLET"> F  </i>
   <i type="logical" name="LFXCEPS"> F  </i>
   <i type="logical" name="LFXHEG"> F  </i>
   <i type="int" name="NATURALO">     0</i>
   <i type="logical" name="L2ORDER"> F  </i>
   <i type="logical" name="LUSEW"> F  </i>
   <i name="ENCUTGW">     -2.00000000</i>
   <i name="ENCUTGWSOFT">     -2.00000000</i>
   <i name="ENCUTLF">     -1.00000000</i>
   <i type="int" name="LMAXMP2">    -1</i>
   <i name="SCISSOR">      0.00000000</i>
   <i type="int" name="NOMEGA">     0</i>
   <i type="int" name="NOMEGAR">     0</i>
   <i type="int" name="NBANDSGW">    -1</i>
   <i type="int" name="NBANDSO">    -1</i>
   <i type="int" name="NBANDSV">    -1</i>
   <i type="int" name="NELM">     1</i>
   <i type="int" name="NELMHF">     1</i>
   <i type="int" name="DIM">     3</i>
   <i type="int" name="ANTIRES">     0</i>
   <i name="OMEGAMAX">    -30.00000000</i>
   <i name="OMEGAMIN">    -30.00000000</i>
   <i name="OMEGATL">   -200.00000000</i>
   <i type="int" name="OMEGAGRID">     0</i>
   <i name="CSHIFT">     -0.10000000</i>
   <i type="logical" name="SELFENERGY"> F  </i>
   <i type="logical" name="LSPECTRAL"> F  </i>
   <i type="logical" name="LSPECTRALGW"> F  </i>
   <i type="logical" name="LSINGLES"> F  </i>
   <i type="logical" name="LFERMIGW"> F  </i>
   <i type="logical" name="ODDONLYGW"> F  </i>
   <i type="logical" name="EVENONLYGW"> F  </i>
   <i type="int" name="NKREDLFX">     1</i>
   <i type="int" name="NKREDLFY">     1</i>
   <i type="int" name="NKREDLFZ">     1</i>
   <i type="int" name="MAXMEM">  1800</i>
   <i type="int" name="TELESCOPE">     0</i>
   <i type="int" name="TAUPAR">     1</i>
   <i type="int" name="OMEGAPAR">    -1</i>
   <i name="LAMBDA">      1.00000000</i>
  </separator>
  <separator name="External order field" >
   <i name="OFIELD_KAPPA">      0.00000000</i>
   <v name="OFIELD_K">      0.00000000      0.00000000      0.00000000</v>
   <i name="OFIELD_Q6_NEAR">      0.00000000</i>
   <i name="OFIELD_Q6_FAR">      0.00000000</i>
   <i name="OFIELD_A">      0.00000000</i>
  </separator>
 </parameters>
 <atominfo>
  <atoms>      64 </atoms>
  <types>       1 </types>
  <array name="atoms" >
   <dimension dim="1">ion</dimension>
   <field type="string">element</field>
   <field type="int">atomtype</field>
   <set>
    <rc><c>Ni</c><c>   1</c></rc>
    <rc><c>Ni</c><c>   1</c></rc>
    <rc><c>Ni</c><c>   1</c></rc>
    <rc><c>Ni</c><c>   1</c></rc>
    <rc><c>Ni</c><c>   1</c></rc>
    <rc><c>Ni</c><c>   1</c></rc>
    <rc><c>Ni</c><c>   1</c></rc>
    <rc><c>Ni</c><c>   1</c></rc>
    <rc><c>Ni</c><c>   1</c></rc>
    <rc><c>Ni</c><c>   1</c></rc>
    <rc><c>Ni</c><c>   1</c></rc>
    <rc><c>Ni</c><c>   1</c></rc>
    <rc><c>Ni</c><c>   1</c></rc>
    <rc><c>Ni</c><c>   1</c></rc>
    <rc><c>Ni</c><c>   1</c></rc>
    <rc><c>Ni</c><c>   1</c></rc>
    <rc><c>Ni</c><c>   1</c></rc>
    <rc><c>Ni</c><c>   1</c></rc>
    <rc><c>Ni</c><c>   1</c></rc>
    <rc><c>Ni</c><c>   1</c></rc>
    <rc><c>Ni</c><c>   1</c></rc>
    <rc><c>Ni</c><c>   1</c></rc>
    <rc><c>Ni</c><c>   1</c></rc>
    <rc><c>Ni</c><c>   1</c></rc>
    <rc><c>Ni</c><c>   1</c></rc>
    <rc><c>Ni</c><c>   1</c></rc>
    <rc><c>Ni</c><c>   1</c></rc>
    <rc><c>Ni</c><c>   1</c></rc>
    <rc><c>Ni</c><c>   1</c></rc>
    <rc><c>Ni</c><c>   1</c></rc>
    <rc><c>Ni</c><c>   1</c></rc>
    <rc><c>Ni</c><c>   1</c></rc>
    <rc><c>Ni</c><c>   1</c></rc>
    <rc><c>Ni</c><c>   1</c></rc>
    <rc><c>Ni</c><c>   1</c></rc>
    <rc><c>Ni</c><c>   1</c></rc>
    <rc><c>Ni</c><c>   1</c></rc>
    <rc><c>Ni</c><c>   1</c></rc>
    <rc><c>Ni</c><c>   1</c></rc>
    <rc><c>Ni</c><c>   1</c></rc>
    <rc><c>Ni</c><c>   1</c></rc>
    <rc><c>Ni</c><c>   1</c></rc>
    <rc><c>Ni</c><c>   1</c></rc>
    <rc><c>Ni</c><c>   1</c></rc>
    <rc><c>Ni</c><c>   1</c></rc>
    <rc><c>Ni</c><c>   1</c></rc>
    <rc><c>Ni</c><c>   1</c></rc>
    <rc><c>Ni</c><c>   1</c></rc>
    <rc><c>Ni</c><c>   1</c></rc>
    <rc><c>Ni</c><c>   1</c></rc>
    <rc><c>Ni</c><c>   1</c></rc>
    <rc><c>Ni</c><c>   1</c></rc>
    <rc><c>Ni</c><c>   1</c></rc>
    <rc><c>Ni</c><c>   1</c></rc>
    <rc><c>Ni</c><c>   1</c></rc>
    <rc><c>Ni</c><c>   1</c></rc>
    <rc><c>Ni</c><c>   1</c></rc>
    <rc><c>Ni</c><c>   1</c></rc>
    <rc><c>Ni</c><c>   1</c></rc>
    <rc><c>Ni</c><c>   1</c></rc>
    <rc><c>Ni</c><c>   1</c></rc>
    <rc><c>Ni</c><c>   1</c></rc>
    <rc><c>Ni</c><c>   1</c></rc>
    <rc><c>Ni</c><c>   1</c></rc>
   </set>
  </array>
  <array name="atomtypes" >
   <dimension dim="1">type</dimension>
   <field type="int">atomspertype</field>
   <field type="string">element</field>
   <field>mass</field>
   <field>valence</field>
   <field type="string">pseudopotential</field>
   <set>
    <rc><c>  64</c><c>Ni</c><c>     58.69000000</c><c>     16.00000000</c><c> PAW_PBE Ni_pv 06Sep2000                </c></rc>
   </set>
  </array>
 </atominfo>
 <structure name="initialpos" >
  <crystal>
   <varray name="basis" >
    <v>       0.00000000       7.47300000       7.47300000 </v>
    <v>       7.47300000       0.00000000       7.47300000 </v>
    <v>       7.47300000       7.47300000       0.00000000 </v>
   </varray>
   <i name="volume">    834.67026563 </i>
   <varray name="rec_basis" >
    <v>      -0.06690753       0.06690753       0.06690753 </v>
    <v>       0.06690753      -0.06690753       0.06690753 </v>
    <v>       0.06690753       0.06690753      -0.06690753 </v>
   </varray>
  </crystal>
  <varray name="positions" >
   <v>       0.00000000       0.00000000       0.00000000 </v>
   <v>       0.00000000       0.00000000       0.25000000 </v>
   <v>       0.00000000       0.00000000       0.50000000 </v>
   <v>       0.00000000       0.00000000       0.75000000 </v>
   <v>       0.00000000       0.25000000       0.00000000 </v>
   <v>       0.00000000       0.25000000       0.25000000 </v>
   <v>       0.00000000       0.25000000       0.50000000 </v>
   <v>       0.00000000       0.25000000       0.75000000 </v>
   <v>       0.00000000       0.50000000       0.00000000 </v>
   <v>       0.00000000       0.50000000       0.25000000 </v>
   <v>       0.00000000       0.50000000       0.50000000 </v>
   <v>       0.00000000       0.50000000       0.75000000 </v>
   <v>       0.00000000       0.75000000       0.00000000 </v>
   <v>       0.00000000       0.75000000       0.25000000 </v>
   <v>       0.00000000       0.75000000       0.50000000 </v>
   <v>       0.00000000       0.75000000       0.75000000 </v>
   <v>       0.25000000       0.00000000       0.00000000 </v>
   <v>       0.25000000       0.00000000       0.25000000 </v>
   <v>       0.25000000       0.00000000       0.50000000 </v>
   <v>       0.25000000       0.00000000       0.75000000 </v>
   <v>       0.25000000       0.25000000       0.00000000 </v>
   <v>       0.25000000       0.25000000       0.25000000 </v>
   <v>       0.25000000       0.25000000       0.50000000 </v>
   <v>       0.25000000       0.25000000       0.75000000 </v>
   <v>       0.25000000       0.50000000       0.00000000 </v>
   <v>       0.25000000       0.50000000       0.25000000 </v>
   <v>       0.25000000       0.50000000       0.50000000 </v>
   <v>       0.25000000       0.50000000       0.75000000 </v>
   <v>       0.25000000       0.75000000       0.00000000 </v>
   <v>       0.25000000       0.75000000       0.25000000 </v>
   <v>       0.25000000       0.75000000       0.50000000 </v>
   <v>       0.25000000       0.75000000       0.75000000 </v>
   <v>       0.50000000       0.00000000       0.00000000 </v>
   <v>       0.50000000       0.00000000       0.25000000 </v>
   <v>       0.50000000       0.00000000       0.50000000 </v>
   <v>       0.50000000       0.00000000       0.75000000 </v>
   <v>       0.50000000       0.25000000       0.00000000 </v>
   <v>       0.50000000       0.25000000       0.25000000 </v>
   <v>       0.50000000       0.25000000       0.50000000 </v>
   <v>       0.50000000       0.25000000       0.75000000 </v>
   <v>       0.50000000       0.50000000       0.00000000 </v>
   <v>       0.50000000       0.50000000       0.25000000 </v>
   <v>       0.50000000       0.50000000       0.50000000 </v>
   <v>       0.50000000       0.50000000       0.75000000 </v>
   <v>       0.50000000       0.75000000       0.00000000 </v>
   <v>       0.50000000       0.75000000       0.25000000 </v>
   <v>       0.50000000       0.75000000       0.50000000 </v>
   <v>       0.50000000       0.75000000       0.75000000 </v>
   <v>       0.75000000       0.00000000       0.00000000 </v>
   <v>       0.75000000       0.00000000       0.25000000 </v>
   <v>       0.75000000       0.00000000       0.50000000 </v>
   <v>       0.75000000       0.00000000       0.75000000 </v>
   <v>       0.75000000       0.25000000       0.00000000 </v>
   <v>       0.75000000       0.25000000       0.25000000 </v>
   <v>       0.75000000       0.25000000       0.50000000 </v>
   <v>       0.75000000       0.25000000       0.75000000 </v>
   <v>       0.75000000       0.50000000       0.00000000 </v>
   <v>       0.75000000       0.50000000       0.25000000 </v>
   <v>       0.75000000       0.50000000       0.50000000 </v>
   <v>       0.75000000       0.50000000       0.75000000 </v>
   <v>       0.75000000       0.75000000       0.00000000 </v>
   <v>       0.75000000       0.75000000       0.25000000 </v>
   <v>       0.75000000       0.75000000       0.50000000 </v>
   <v>       0.75000000       0.75000000       0.75000000 </v>
  </varray>
 </structure>
 <calculation>
  <scstep>
   <time name="dav">  160.36  160.23</time>
   <time name="total">  160.77  160.63</time>
   <energy>
    <i name="alphaZ">   8266.97428417 </i>
    <i name="ewald">-144746.26977670 </i>
    <i name="hartreedc"> -67168.00643193 </i>
    <i name="XCdc">   5681.51835869 </i>
    <i name="pawpsdc"> 172361.15642774 </i>
    <i name="pawaedc">-181272.45834873 </i>
    <i name="eentropy">     -0.00196182 </i>
    <i name="bandstr">  -1905.93083785 </i>
    <i name="atom"> 224016.65216645 </i>
    <i name="e_fr_energy">  15233.63388003 </i>
    <i name="e_wo_entrp">  15233.63584185 </i>
    <i name="e_0_energy">  15233.63453397 </i>
   </energy>
  </scstep>
  <scstep>
   <time name="dav">  146.05  145.93</time>
   <time name="total">  146.05  145.93</time>
   <energy>
    <i name="e_fr_energy">    957.94683942 </i>
    <i name="e_wo_entrp">    957.97389017 </i>
    <i name="e_0_energy">    957.95585633 </i>
   </energy>
  </scstep>
  <scstep>
   <time name="dav">  148.44  148.31</time>
   <time name="total">  148.44  148.32</time>
   <energy>
    <i name="e_fr_energy">   -342.01440511 </i>
    <i name="e_wo_entrp">   -342.18128104 </i>
    <i name="e_0_energy">   -342.07003042 </i>
   </energy>
  </scstep>
  <scstep>
   <time name="dav">  154.24  154.12</time>
   <time name="total">  154.25  154.12</time>
   <energy>
    <i name="e_fr_energy">   -418.39243833 </i>
    <i name="e_wo_entrp">   -418.55909743 </i>
    <i name="e_0_energy">   -418.44799137 </i>
   </energy>
  </scstep>
  <scstep>
   <time name="dav">  153.29  153.16</time>
   <time name="total">  161.63  161.50</time>
   <energy>
    <i name="e_fr_energy">   -419.74328230 </i>
    <i name="e_wo_entrp">   -419.91049745 </i>
    <i name="e_0_energy">   -419.79902069 </i>
   </energy>
  </scstep>
  <scstep>
   <time name="dav">  151.14  151.02</time>
   <time name="total">  159.46  159.33</time>
   <energy>
    <i name="e_fr_energy">   -401.68591394 </i>
    <i name="e_wo_entrp">   -401.15849934 </i>
    <i name="e_0_energy">   -401.51010907 </i>
   </energy>
  </scstep>
  <scstep>
   <time name="dav">  151.02  150.89</time>
   <time name="total">  159.40  159.27</time>
   <energy>
    <i name="e_fr_energy">   -359.03237012 </i>
    <i name="e_wo_entrp">   -358.92601795 </i>
    <i name="e_0_energy">   -358.99691940 </i>
   </energy>
  </scstep>
  <scstep>
   <time name="dav">  151.30  151.18</time>
   <time name="total">  159.65  159.52</time>
   <energy>
    <i name="e_fr_energy">   -359.25816278 </i>
    <i name="e_wo_entrp">   -359.17058559 </i>
    <i name="e_0_energy">   -359.22897038 </i>
   </energy>
  </scstep>
  <scstep>
   <time name="dav">  154.44  154.31</time>
   <time name="total">  162.78  162.64</time>
   <energy>
    <i name="e_fr_energy">   -359.14456828 </i>
    <i name="e_wo_entrp">   -359.04989526 </i>
    <i name="e_0_energy">   -359.11301060 </i>
   </energy>
  </scstep>
  <scstep>
   <time name="dav">  159.14  159.00</time>
   <time name="total">  167.51  167.37</time>
   <energy>
    <i name="e_fr_energy">   -359.15123184 </i>
    <i name="e_wo_entrp">   -359.05755818 </i>
    <i name="e_0_energy">   -359.12000728 </i>
   </energy>
  </scstep>
  <scstep>
   <time name="dav">  152.37  152.24</time>
   <time name="total">  160.72  160.59</time>
   <energy>
    <i name="e_fr_energy">   -359.15493792 </i>
    <i name="e_wo_entrp">   -359.06237403 </i>
    <i name="e_0_energy">   -359.12408329 </i>
   </energy>
  </scstep>
  <scstep>
   <time name="dav">  155.84  155.71</time>
   <time name="total">  164.20  164.07</time>
   <energy>
    <i name="e_fr_energy">   -359.15501007 </i>
    <i name="e_wo_entrp">   -359.06102565 </i>
    <i name="e_0_energy">   -359.12368193 </i>
   </energy>
  </scstep>
  <scstep>
   <time name="dav">  158.21  158.08</time>
   <time name="total">  166.56  166.42</time>
   <energy>
    <i name="e_fr_energy">   -359.15501068 </i>
    <i name="e_wo_entrp">   -359.06083748 </i>
    <i name="e_0_energy">   -359.12361961 </i>
   </energy>
  </scstep>
  <scstep>
   <time name="dav">  123.42  123.32</time>
   <time name="total">  131.77  131.66</time>
   <energy>
    <i name="e_fr_energy">   -359.15499259 </i>
    <i name="e_wo_entrp">   -359.06090018 </i>
    <i name="e_0_energy">   -359.12362845 </i>
   </energy>
  </scstep>
  <scstep>
   <time name="dav">  116.38  116.29</time>
   <time name="total">  124.74  124.64</time>
   <energy>
    <i name="e_fr_energy">   -359.15498476 </i>
    <i name="e_wo_entrp">   -359.06096087 </i>
    <i name="e_0_energy">   -359.12364346 </i>
   </energy>
  </scstep>
  <scstep>
   <time name="dav">   94.42   94.35</time>
   <time name="total">   94.81   94.73</time>
   <energy>
    <i name="alphaZ">   8266.97428417 </i>
    <i name="ewald">-144746.26977670 </i>
    <i name="hartreedc"> -64899.89415700 </i>
    <i name="XCdc">   5598.56274924 </i>
    <i name="pawpsdc"> 170257.97001101 </i>
    <i name="pawaedc">-179290.62523004 </i>
    <i name="eentropy">     -0.09402038 </i>
    <i name="bandstr"> -19562.43101198 </i>
    <i name="atom"> 224016.65216645 </i>
    <i name="e_fr_energy">   -359.15498523 </i>
    <i name="e_wo_entrp">   -359.06096485 </i>
    <i name="e_0_energy">   -359.12364510 </i>
   </energy>
  </scstep>
  <structure>
   <crystal>
    <varray name="basis" >
     <v>       0.00000000       7.47300000       7.47300000 </v>
     <v>       7.47300000       0.00000000       7.47300000 </v>
     <v>       7.47300000       7.47300000       0.00000000 </v>
    </varray>
    <i name="volume">    834.67026563 </i>
    <varray name="rec_basis" >
     <v>      -0.06690753       0.06690753       0.06690753 </v>
     <v>       0.06690753      -0.06690753       0.06690753 </v>
     <v>       0.06690753       0.06690753      -0.06690753 </v>
    </varray>
   </crystal>
   <varray name="positions" >
    <v>       0.00000000       0.00000000       0.00000000 </v>
    <v>       0.00000000       0.00000000       0.25000000 </v>
    <v>       0.00000000       0.00000000       0.50000000 </v>
    <v>       0.00000000       0.00000000       0.75000000 </v>
    <v>       0.00000000       0.25000000       0.00000000 </v>
    <v>       0.00000000       0.25000000       0.25000000 </v>
    <v>       0.00000000       0.25000000       0.50000000 </v>
    <v>       0.00000000       0.25000000       0.75000000 </v>
    <v>       0.00000000       0.50000000       0.00000000 </v>
    <v>       0.00000000       0.50000000       0.25000000 </v>
    <v>       0.00000000       0.50000000       0.50000000 </v>
    <v>       0.00000000       0.50000000       0.75000000 </v>
    <v>       0.00000000       0.75000000       0.00000000 </v>
    <v>       0.00000000       0.75000000       0.25000000 </v>
    <v>       0.00000000       0.75000000       0.50000000 </v>
    <v>       0.00000000       0.75000000       0.75000000 </v>
    <v>       0.25000000       0.00000000       0.00000000 </v>
    <v>       0.25000000       0.00000000       0.25000000 </v>
    <v>       0.25000000       0.00000000       0.50000000 </v>
    <v>       0.25000000       0.00000000       0.75000000 </v>
    <v>       0.25000000       0.25000000       0.00000000 </v>
    <v>       0.25000000       0.25000000       0.25000000 </v>
    <v>       0.25000000       0.25000000       0.50000000 </v>
    <v>       0.25000000       0.25000000       0.75000000 </v>
    <v>       0.25000000       0.50000000       0.00000000 </v>
    <v>       0.25000000       0.50000000       0.25000000 </v>
    <v>       0.25000000       0.50000000       0.50000000 </v>
    <v>       0.25000000       0.50000000       0.75000000 </v>
    <v>       0.25000000       0.75000000       0.00000000 </v>
    <v>       0.25000000       0.75000000       0.25000000 </v>
    <v>       0.25000000       0.75000000       0.50000000 </v>
    <v>       0.25000000       0.75000000       0.75000000 </v>
    <v>       0.50000000       0.00000000       0.00000000 </v>
    <v>       0.50000000       0.00000000       0.25000000 </v>
    <v>       0.50000000       0.00000000       0.50000000 </v>
    <v>       0.50000000       0.00000000       0.75000000 </v>
    <v>       0.50000000       0.25000000       0.00000000 </v>
    <v>       0.50000000       0.25000000       0.25000000 </v>
    <v>       0.50000000       0.25000000       0.50000000 </v>
    <v>       0.50000000       0.25000000       0.75000000 </v>
    <v>       0.50000000       0.50000000       0.00000000 </v>
    <v>       0.50000000       0.50000000       0.25000000 </v>
    <v>       0.50000000       0.50000000       0.50000000 </v>
    <v>       0.50000000       0.50000000       0.75000000 </v>
    <v>       0.50000000       0.75000000       0.00000000 </v>
    <v>       0.50000000       0.75000000       0.25000000 </v>
    <v>       0.50000000       0.75000000       0.50000000 </v>
    <v>       0.50000000       0.75000000       0.75000000 </v>
    <v>       0.75000000       0.00000000       0.00000000 </v>
    <v>       0.75000000       0.00000000       0.25000000 </v>
    <v>       0.75000000       0.00000000       0.50000000 </v>
    <v>       0.75000000       0.00000000       0.75000000 </v>
    <v>       0.75000000       0.25000000       0.00000000 </v>
    <v>       0.75000000       0.25000000       0.25000000 </v>
    <v>       0.75000000       0.25000000       0.50000000 </v>
    <v>       0.75000000       0.25000000       0.75000000 </v>
    <v>       0.75000000       0.50000000       0.00000000 </v>
    <v>       0.75000000       0.50000000       0.25000000 </v>
    <v>       0.75000000       0.50000000       0.50000000 </v>
    <v>       0.75000000       0.50000000       0.75000000 </v>
    <v>       0.75000000       0.75000000       0.00000000 </v>
    <v>       0.75000000       0.75000000       0.25000000 </v>
    <v>       0.75000000       0.75000000       0.50000000 </v>
    <v>       0.75000000       0.75000000       0.75000000 </v>
   </varray>
  </structure>
  <varray name="forces" >
   <v>      -0.00000000      -0.00000000      -0.00000000 </v>
   <v>      -0.00000000       0.00000000       0.00000000 </v>
   <v>      -0.00000000      -0.00000000      -0.00000000 </v>
   <v>       0.00000000       0.00000000      -0.00000000 </v>
   <v>       0.00000000       0.00000000      -0.00000000 </v>
   <v>      -0.00000000      -0.00000000       0.00000000 </v>
   <v>       0.00000000      -0.00000000      -0.00000000 </v>
   <v>      -0.00000000      -0.00000000      -0.00000000 </v>
   <v>       0.00000000      -0.00000000       0.00000000 </v>
   <v>      -0.00000000       0.00000000       0.00000000 </v>
   <v>       0.00000000       0.00000000      -0.00000000 </v>
   <v>       0.00000000       0.00000000       0.00000000 </v>
   <v>      -0.00000000       0.00000000       0.00000000 </v>
   <v>       0.00000000      -0.00000000       0.00000000 </v>
   <v>      -0.00000000       0.00000000      -0.00000000 </v>
   <v>      -0.00000000       0.00000000       0.00000000 </v>
   <v>      -0.00000000      -0.00000000       0.00000000 </v>
   <v>       0.00000000      -0.00000000      -0.00000000 </v>
   <v>      -0.00000000       0.00000000       0.00000000 </v>
   <v>       0.00000000      -0.00000000       0.00000000 </v>
   <v>       0.00000000       0.00000000      -0.00000000 </v>
   <v>       0.00000000       0.00000000      -0.00000000 </v>
   <v>       0.00000000      -0.00000000      -0.00000000 </v>
   <v>      -0.00000000      -0.00000000      -0.00000000 </v>
   <v>       0.00000000       0.00000000       0.00000000 </v>
   <v>       0.00000000      -0.00000000      -0.00000000 </v>
   <v>      -0.00000000       0.00000000      -0.00000000 </v>
   <v>      -0.00000000       0.00000000       0.00000000 </v>
   <v>      -0.00000000       0.00000000       0.00000000 </v>
   <v>       0.00000000       0.00000000      -0.00000000 </v>
   <v>       0.00000000      -0.00000000       0.00000000 </v>
   <v>       0.00000000      -0.00000000       0.00000000 </v>
   <v>      -0.00000000       0.00000000      -0.00000000 </v>
   <v>      -0.00000000       0.00000000       0.00000000 </v>
   <v>      -0.00000000      -0.00000000       0.00000000 </v>
   <v>       0.00000000      -0.00000000      -0.00000000 </v>
   <v>       0.00000000      -0.00000000      -0.00000000 </v>
   <v>       0.00000000      -0.00000000       0.00000000 </v>
   <v>      -0.00000000      -0.00000000       0.00000000 </v>
   <v>      -0.00000000      -0.00000000      -0.00000000 </v>
   <v>       0.00000000       0.00000000       0.00000000 </v>
   <v>      -0.00000000       0.00000000      -0.00000000 </v>
   <v>       0.00000000       0.00000000       0.00000000 </v>
   <v>      -0.00000000      -0.00000000       0.00000000 </v>
   <v>      -0.00000000       0.00000000       0.00000000 </v>
   <v>       0.00000000       0.00000000      -0.00000000 </v>
   <v>      -0.00000000      -0.00000000      -0.00000000 </v>
   <v>       0.00000000      -0.00000000       0.00000000 </v>
   <v>      -0.00000000      -0.00000000      -0.00000000 </v>
   <v>      -0.00000000       0.00000000       0.00000000 </v>
   <v>      -0.00000000      -0.00000000      -0.00000000 </v>
   <v>       0.00000000      -0.00000000       0.00000000 </v>
   <v>       0.00000000      -0.00000000       0.00000000 </v>
   <v>      -0.00000000       0.00000000       0.00000000 </v>
   <v>       0.00000000      -0.00000000      -0.00000000 </v>
   <v>      -0.00000000       0.00000000       0.00000000 </v>
   <v>       0.00000000       0.00000000      -0.00000000 </v>
   <v>      -0.00000000       0.00000000      -0.00000000 </v>
   <v>      -0.00000000       0.00000000      -0.00000000 </v>
   <v>      -0.00000000      -0.00000000       0.00000000 </v>
   <v>      -0.00000000      -0.00000000       0.00000000 </v>
   <v>       0.00000000       0.00000000       0.00000000 </v>
   <v>      -0.00000000      -0.00000000      -0.00000000 </v>
   <v>       0.00000000      -0.00000000       0.00000000 </v>
  </varray>
  <varray name="stress" >
   <v>    -233.16733732      -0.00000000      -0.00000000 </v>
   <v>      -0.00000000    -233.16733732      -0.00000000 </v>
   <v>       0.00000000      -0.00000000    -233.16733732 </v>
  </varray>
  <energy>
   <i name="e_fr_energy">   -359.15498523 </i>
   <i name="e_wo_entrp">   -359.12364510 </i>
   <i name="e_0_energy">     -0.09402038 </i>
  </energy>
  <kpoints>
   <generation param="Gamma">
    <v type="int" name="divisions">       3        3        3 </v>
    <v name="usershift">      0.00000000       0.00000000       0.00000000 </v>
    <v name="genvec1">      0.33333333       0.00000000       0.00000000 </v>
    <v name="genvec2">      0.00000000       0.33333333       0.00000000 </v>
    <v name="genvec3">      0.00000000       0.00000000       0.33333333 </v>
    <v name="shift">      0.00000000       0.00000000       0.00000000 </v>
   </generation>
   <varray name="kpointlist" >
    <v>       0.00000000       0.00000000       0.00000000 </v>
    <v>       0.33333333       0.00000000       0.00000000 </v>
    <v>       0.33333333       0.33333333       0.00000000 </v>
    <v>      -0.33333333       0.33333333       0.00000000 </v>
    <v>       0.00000000       0.33333333       0.33333333 </v>
    <v>      -0.33333333       0.33333333       0.33333333 </v>
   </varray>
   <varray name="weights" >
    <v>       0.03703704 </v>
    <v>       0.29629630 </v>
    <v>       0.14814815 </v>
    <v>       0.29629630 </v>
    <v>       0.07407407 </v>
    <v>       0.14814815 </v>
   </varray>
  </kpoints>
  <scstep>
   <time name="total">  223.31  223.13</time>
   <energy>
    <i name="e_fr_energy">  -3352.40650317 </i>
    <i name="e_wo_entrp">  -3352.40650304 </i>
    <i name="e_0_energy">  -3352.40650313 </i>
   </energy>
  </scstep>
  <scstep>
   <time name="total">  284.53  284.30</time>
   <energy>
    <i name="e_fr_energy">  -4009.39326503 </i>
    <i name="e_wo_entrp">  -4009.39324072 </i>
    <i name="e_0_energy">  -4009.39325693 </i>
   </energy>
  </scstep>
  <scstep>
   <time name="total">  298.58  298.33</time>
   <energy>
    <i name="e_fr_energy">  -4007.46415978 </i>
    <i name="e_wo_entrp">  -4007.46415855 </i>
    <i name="e_0_energy">  -4007.46415937 </i>
   </energy>
  </scstep>
  <scstep>
   <time name="total">  257.28  257.07</time>
   <energy>
    <i name="e_fr_energy">  -4009.18712286 </i>
    <i name="e_wo_entrp">  -4009.18706280 </i>
    <i name="e_0_energy">  -4009.18710284 </i>
   </energy>
  </scstep>
  <scstep>
   <time name="total">  233.07  232.88</time>
   <energy>
    <i name="e_fr_energy">  -4006.60018592 </i>
    <i name="e_wo_entrp">  -4006.60015274 </i>
    <i name="e_0_energy">  -4006.60017486 </i>
   </energy>
  </scstep>
  <scstep>
   <time name="total">  234.34  234.14</time>
   <energy>
    <i name="e_fr_energy">  -4007.00042888 </i>
    <i name="e_wo_entrp">  -4007.00041223 </i>
    <i name="e_0_energy">  -4007.00042333 </i>
   </energy>
  </scstep>
  <scstep>
   <time name="total">  271.24  271.02</time>
   <energy>
    <i name="e_fr_energy">  -4007.70441906 </i>
    <i name="e_wo_entrp">  -4007.70438767 </i>
    <i name="e_0_energy">  -4007.70440860 </i>
   </energy>
  </scstep>
  <scstep>
   <time name="total">  234.33  234.13</time>
   <energy>
    <i name="e_fr_energy">  -4006.48772735 </i>
    <i name="e_wo_entrp">  -4006.48770771 </i>
    <i name="e_0_energy">  -4006.48772080 </i>
   </energy>
  </scstep>
  <scstep>
   <time name="total">  285.17  284.93</time>
   <energy>
    <i name="e_fr_energy">  -4006.81964938 </i>
    <i name="e_wo_entrp">  -4006.81962778 </i>
    <i name="e_0_energy">  -4006.81964218 </i>
   </energy>
  </scstep>
  <scstep>
   <time name="total">  289.02  288.78</time>
   <energy>
    <i name="e_fr_energy">  -4005.83557180 </i>
    <i name="e_wo_entrp">  -4005.83555041 </i>
    <i name="e_0_energy">  -4005.83556467 </i>
   </energy>
  </scstep>
  <scstep>
   <time name="total">  312.57  312.31</time>
   <energy>
    <i name="e_fr_energy">  -4007.18150028 </i>
    <i name="e_wo_entrp">  -4007.18147886 </i>
    <i name="e_0_energy">  -4007.18149314 </i>
   </energy>
  </scstep>
  <scstep>
   <time name="total">  300.56  300.32</time>
   <energy>
    <i name="e_fr_energy">  -4005.60010276 </i>
    <i name="e_wo_entrp">  -4005.60008013 </i>
    <i name="e_0_energy">  -4005.60009522 </i>
   </energy>
  </scstep>
  <scstep>
   <time name="total">  299.38  299.14</time>
   <energy>
    <i name="e_fr_energy">  -4006.27263662 </i>
    <i name="e_wo_entrp">  -4006.27261360 </i>
    <i name="e_0_energy">  -4006.27262895 </i>
   </energy>
  </scstep>
  <scstep>
   <time name="total">  339.23  338.95</time>
   <energy>
    <i name="e_fr_energy">  -4006.39895556 </i>
    <i name="e_wo_entrp">  -4006.39893356 </i>
    <i name="e_0_energy">  -4006.39894823 </i>
   </energy>
  </scstep>
  <scstep>
   <time name="total">  343.02  342.74</time>
   <energy>
    <i name="e_fr_energy">  -4006.23306576 </i>
    <i name="e_wo_entrp">  -4006.23304482 </i>
    <i name="e_0_energy">  -4006.23305878 </i>
   </energy>
  </scstep>
  <scstep>
   <time name="total">  353.43  353.14</time>
   <energy>
    <i name="e_fr_energy">  -4006.18547075 </i>
    <i name="e_wo_entrp">  -4006.18544928 </i>
    <i name="e_0_energy">  -4006.18546360 </i>
   </energy>
  </scstep>
  <scstep>
   <time name="total">  355.51  355.22</time>
   <energy>
    <i name="e_fr_energy">  -4006.21215551 </i>
    <i name="e_wo_entrp">  -4006.21213324 </i>
    <i name="e_0_energy">  -4006.21214809 </i>
   </energy>
  </scstep>
  <scstep>
   <time name="total">  365.77  365.47</time>
   <energy>
    <i name="e_fr_energy">  -4006.19747786 </i>
    <i name="e_wo_entrp">  -4006.19745569 </i>
    <i name="e_0_energy">  -4006.19747047 </i>
   </energy>
  </scstep>
  <kpoints>
   <generation param="Gamma">
    <v type="int" name="divisions">       3        3        3 </v>
    <v name="usershift">      0.00000000       0.00000000       0.00000000 </v>
    <v name="genvec1">      0.33333333       0.00000000       0.00000000 </v>
    <v name="genvec2">      0.00000000       0.33333333       0.00000000 </v>
    <v name="genvec3">      0.00000000       0.00000000       0.33333333 </v>
    <v name="shift">      0.00000000       0.00000000       0.00000000 </v>
   </generation>
   <varray name="kpointlist" >
    <v>       0.00000000       0.00000000       0.00000000 </v>
    <v>       0.33333333       0.00000000       0.00000000 </v>
    <v>       0.33333333       0.33333333       0.00000000 </v>
    <v>      -0.33333333       0.33333333       0.00000000 </v>
   </varray>
   <varray name="weights" >
    <v>       0.03703704 </v>
    <v>       0.29629630 </v>
    <v>       0.22222222 </v>
    <v>       0.44444444 </v>
   </varray>
  </kpoints>
  <dynmat>
   <varray name="hessian" >
    <v>      -0.06714916       0.00000000       0.00000000       0.00660911       0.00667311       0.00000000       0.00020091       0.00020407       0.00000000       0.00660911       0.00667311       0.00000000       0.00660911      -0.00000000       0.00667311       0.00087033       0.00061884       0.00061884       0.00022910       0.00061884      -0.00026434       0.00086584       0.00000000       0.00000000       0.00020091      -0.00000000       0.00020407       0.00022910      -0.00026434       0.00061884      -0.00001476       0.00000000      -0.00000000       0.00022910      -0.00026434       0.00061884       0.00660911      -0.00000000       0.00667311       0.00086584       0.00000000       0.00000000       0.00022910       0.00061884      -0.00026434       0.00087033       0.00061884       0.00061884       0.00086584       0.00000000      -0.00000000       0.00022910       0.00061884       0.00026434       0.00087033       0.00061884      -0.00061884       0.00660911       0.00000000      -0.00667311       0.00022910       0.00026434       0.00061884       0.00016418       0.00000000       0.00000000       0.00022910       0.00026434      -0.00061884      -0.00069160       0.00000000       0.00000000       0.00087033      -0.00061884       0.00061884       0.00022910      -0.00061884       0.00026434      -0.00018812      -0.00000000      -0.00000000      -0.00003691      -0.00000000      -0.00007539       0.00660911      -0.00667311       0.00000000      -0.00069160       0.00000000       0.00000000      -0.00003691      -0.00007539       0.00000000       0.00166790       0.00000000       0.00000000      -0.00001476      -0.00000000       0.00000000       0.00022910      -0.00026434      -0.00061884       0.00020091       0.00000000      -0.00020407       0.00022910      -0.00026434      -0.00061884       0.00022910      -0.00061884      -0.00026434       0.00087033      -0.00061884      -0.00061884      -0.00003691      -0.00000000       0.00007539      -0.00018812       0.00000000      -0.00000000       0.00020091      -0.00020407      -0.00000000      -0.00003691       0.00007539      -0.00000000      -0.00043947       0.00000000       0.00000000      -0.00003691       0.00007539      -0.00000000       0.00022910      -0.00061884      -0.00026434      -0.00018812      -0.00000000       0.00000000      -0.00003691      -0.00000000       0.00007539       0.00087033      -0.00061884      -0.00061884       0.00086584       0.00000000      -0.00000000       0.00660911       0.00000000      -0.00667311       0.00087033       0.00061884      -0.00061884       0.00022910       0.00061884       0.00026434       0.00660911      -0.00667311       0.00000000       0.00166790      -0.00000000       0.00000000      -0.00003691      -0.00007539       0.00000000      -0.00069160       0.00000000       0.00000000       0.00087033      -0.00061884       0.00061884      -0.00003691       0.00000000      -0.00007539      -0.00018812      -0.00000000      -0.00000000       0.00022910      -0.00061884       0.00026434       0.00022910       0.00026434       0.00061884      -0.00069160       0.00000000      -0.00000000       0.00022910       0.00026434      -0.00061884       0.00016418       0.00000000       0.00000000 </v>
    <v>       0.00000000      -0.06714916       0.00000000       0.00667311       0.00660911      -0.00000000       0.00020407       0.00020091       0.00000000       0.00667311       0.00660911      -0.00000000      -0.00000000       0.00086584       0.00000000       0.00061884       0.00022910       0.00026434       0.00061884       0.00087033      -0.00061884       0.00000000       0.00660911      -0.00667311      -0.00000000      -0.00001476       0.00000000      -0.00026434       0.00022910      -0.00061884       0.00000000       0.00020091      -0.00020407      -0.00026434       0.00022910      -0.00061884      -0.00000000       0.00086584       0.00000000       0.00000000       0.00660911      -0.00667311       0.00061884       0.00087033      -0.00061884       0.00061884       0.00022910       0.00026434       0.00000000       0.00660911       0.00667311       0.00061884       0.00087033       0.00061884       0.00061884       0.00022910      -0.00026434       0.00000000       0.00086584       0.00000000       0.00026434       0.00022910       0.00061884       0.00000000       0.00016418       0.00000000       0.00026434       0.00022910      -0.00061884       0.00000000      -0.00069160       0.00000000      -0.00061884       0.00022910      -0.00026434      -0.00061884       0.00087033      -0.00061884      -0.00000000      -0.00003691       0.00007539       0.00000000      -0.00018812       0.00000000      -0.00667311       0.00660911       0.00000000       0.00000000       0.00166790      -0.00000000      -0.00007539      -0.00003691       0.00000000      -0.00000000      -0.00069160       0.00000000      -0.00000000       0.00020091       0.00020407      -0.00026434       0.00022910       0.00061884       0.00000000      -0.00001476      -0.00000000      -0.00026434       0.00022910       0.00061884      -0.00061884       0.00087033       0.00061884      -0.00061884       0.00022910       0.00026434      -0.00000000      -0.00018812      -0.00000000      -0.00000000      -0.00003691      -0.00007539      -0.00020407       0.00020091      -0.00000000       0.00007539      -0.00003691      -0.00000000       0.00000000      -0.00043947       0.00000000       0.00007539      -0.00003691      -0.00000000      -0.00061884       0.00087033       0.00061884       0.00000000      -0.00003691      -0.00007539      -0.00000000      -0.00018812      -0.00000000      -0.00061884       0.00022910       0.00026434       0.00000000       0.00660911       0.00667311       0.00000000       0.00086584       0.00000000       0.00061884       0.00022910      -0.00026434       0.00061884       0.00087033       0.00061884      -0.00667311       0.00660911       0.00000000       0.00000000      -0.00069160       0.00000000      -0.00007539      -0.00003691      -0.00000000       0.00000000       0.00166790       0.00000000      -0.00061884       0.00022910      -0.00026434      -0.00000000      -0.00018812       0.00000000      -0.00000000      -0.00003691       0.00007539      -0.00061884       0.00087033      -0.00061884       0.00026434       0.00022910       0.00061884       0.00000000      -0.00069160       0.00000000       0.00026434       0.00022910      -0.00061884       0.00000000       0.00016418       0.00000000 </v>
    <v>       0.00000000       0.00000000      -0.06714916       0.00000000      -0.00000000       0.00086584       0.00000000       0.00000000      -0.00001476       0.00000000      -0.00000000       0.00086584       0.00667311       0.00000000       0.00660911       0.00061884       0.00026434       0.00022910      -0.00026434      -0.00061884       0.00022910       0.00000000      -0.00667311       0.00660911       0.00020407       0.00000000       0.00020091       0.00061884      -0.00061884       0.00087033      -0.00000000      -0.00020407       0.00020091       0.00061884      -0.00061884       0.00087033       0.00667311       0.00000000       0.00660911       0.00000000      -0.00667311       0.00660911      -0.00026434      -0.00061884       0.00022910       0.00061884       0.00026434       0.00022910      -0.00000000       0.00667311       0.00660911       0.00026434       0.00061884       0.00022910      -0.00061884      -0.00026434       0.00022910      -0.00667311       0.00000000       0.00660911       0.00061884       0.00061884       0.00087033       0.00000000       0.00000000       0.00016418      -0.00061884      -0.00061884       0.00087033      -0.00000000       0.00000000       0.00166790       0.00061884      -0.00026434       0.00022910       0.00026434      -0.00061884       0.00022910      -0.00000000       0.00007539      -0.00003691      -0.00007539       0.00000000      -0.00003691       0.00000000       0.00000000       0.00086584       0.00000000       0.00000000      -0.00069160       0.00000000      -0.00000000      -0.00018812       0.00000000       0.00000000      -0.00069160       0.00000000       0.00020407       0.00020091      -0.00061884       0.00061884       0.00087033      -0.00020407      -0.00000000       0.00020091      -0.00061884       0.00061884       0.00087033      -0.00026434       0.00061884       0.00022910      -0.00061884       0.00026434       0.00022910       0.00007539      -0.00000000      -0.00003691       0.00000000      -0.00007539      -0.00003691      -0.00000000      -0.00000000      -0.00001476      -0.00000000      -0.00000000      -0.00018812       0.00000000       0.00000000      -0.00043947      -0.00000000      -0.00000000      -0.00018812      -0.00026434       0.00061884       0.00022910      -0.00000000      -0.00007539      -0.00003691       0.00007539      -0.00000000      -0.00003691      -0.00061884       0.00026434       0.00022910      -0.00000000       0.00667311       0.00660911      -0.00667311       0.00000000       0.00660911      -0.00061884      -0.00026434       0.00022910       0.00026434       0.00061884       0.00022910       0.00000000       0.00000000       0.00086584       0.00000000       0.00000000      -0.00069160       0.00000000       0.00000000      -0.00018812       0.00000000      -0.00000000      -0.00069160       0.00061884      -0.00026434       0.00022910      -0.00007539       0.00000000      -0.00003691      -0.00000000       0.00007539      -0.00003691       0.00026434      -0.00061884       0.00022910       0.00061884       0.00061884       0.00087033       0.00000000       0.00000000       0.00166790      -0.00061884      -0.00061884       0.00087033       0.00000000       0.00000000       0.00016418 </v>
    <v>       0.00660911       0.00667311       0.00000000      -0.06714916       0.00000000       0.00000000       0.00660911       0.00667311       0.00000000       0.00020091       0.00020407       0.00000000       0.00086584       0.00000000       0.00000000       0.00660911      -0.00000000       0.00667311       0.00087033       0.00061884       0.00061884       0.00022910       0.00061884      -0.00026434       0.00022910      -0.00026434       0.00061884       0.00020091      -0.00000000       0.00020407       0.00022910      -0.00026434       0.00061884      -0.00001476       0.00000000      -0.00000000       0.00087033       0.00061884       0.00061884       0.00660911      -0.00000000       0.00667311       0.00086584       0.00000000       0.00000000       0.00022910       0.00061884      -0.00026434       0.00660911       0.00000000      -0.00667311       0.00086584       0.00000000      -0.00000000       0.00022910       0.00061884       0.00026434       0.00087033       0.00061884      -0.00061884      -0.00069160       0.00000000       0.00000000       0.00022910       0.00026434       0.00061884       0.00016418       0.00000000       0.00000000       0.00022910       0.00026434      -0.00061884      -0.00003691      -0.00000000      -0.00007539       0.00087033      -0.00061884       0.00061884       0.00022910      -0.00061884       0.00026434      -0.00018812      -0.00000000      -0.00000000       0.00166790       0.00000000       0.00000000       0.00660911      -0.00667311       0.00000000      -0.00069160       0.00000000       0.00000000      -0.00003691      -0.00007539       0.00000000       0.00022910      -0.00026434      -0.00061884      -0.00001476      -0.00000000       0.00000000       0.00022910      -0.00026434      -0.00061884       0.00020091       0.00000000      -0.00020407      -0.00018812       0.00000000      -0.00000000       0.00022910      -0.00061884      -0.00026434       0.00087033      -0.00061884      -0.00061884      -0.00003691      -0.00000000       0.00007539      -0.00003691       0.00007539      -0.00000000       0.00020091      -0.00020407      -0.00000000      -0.00003691       0.00007539      -0.00000000      -0.00043947       0.00000000       0.00000000       0.00087033      -0.00061884      -0.00061884       0.00022910      -0.00061884      -0.00026434      -0.00018812      -0.00000000       0.00000000      -0.00003691      -0.00000000       0.00007539       0.00022910       0.00061884       0.00026434       0.00086584       0.00000000      -0.00000000       0.00660911       0.00000000      -0.00667311       0.00087033       0.00061884      -0.00061884      -0.00069160       0.00000000       0.00000000       0.00660911      -0.00667311       0.00000000       0.00166790      -0.00000000       0.00000000      -0.00003691      -0.00007539       0.00000000       0.00022910      -0.00061884       0.00026434       0.00087033      -0.00061884       0.00061884      -0.00003691       0.00000000      -0.00007539      -0.00018812      -0.00000000      -0.00000000       0.00016418       0.00000000       0.00000000       0.00022910       0.00026434       0.00061884      -0.00069160       0.00000000      -0.00000000       0.00022910       0.00026434      -0.00061884 </v>
    <v>       0.00667311       0.00660911      -0.00000000       0.00000000      -0.06714916       0.00000000       0.00667311       0.00660911      -0.00000000       0.00020407       0.00020091       0.00000000       0.00000000       0.00660911      -0.00667311      -0.00000000       0.00086584       0.00000000       0.00061884       0.00022910       0.00026434       0.00061884       0.00087033      -0.00061884      -0.00026434       0.00022910      -0.00061884      -0.00000000      -0.00001476       0.00000000      -0.00026434       0.00022910      -0.00061884       0.00000000       0.00020091      -0.00020407       0.00061884       0.00022910       0.00026434      -0.00000000       0.00086584       0.00000000       0.00000000       0.00660911      -0.00667311       0.00061884       0.00087033      -0.00061884       0.00000000       0.00086584       0.00000000       0.00000000       0.00660911       0.00667311       0.00061884       0.00087033       0.00061884       0.00061884       0.00022910      -0.00026434       0.00000000      -0.00069160       0.00000000       0.00026434       0.00022910       0.00061884       0.00000000       0.00016418       0.00000000       0.00026434       0.00022910      -0.00061884       0.00000000      -0.00018812       0.00000000      -0.00061884       0.00022910      -0.00026434      -0.00061884       0.00087033      -0.00061884      -0.00000000      -0.00003691       0.00007539      -0.00000000      -0.00069160       0.00000000      -0.00667311       0.00660911       0.00000000       0.00000000       0.00166790      -0.00000000      -0.00007539      -0.00003691       0.00000000      -0.00026434       0.00022910       0.00061884      -0.00000000       0.00020091       0.00020407      -0.00026434       0.00022910       0.00061884       0.00000000      -0.00001476      -0.00000000      -0.00000000      -0.00003691      -0.00007539      -0.00061884       0.00087033       0.00061884      -0.00061884       0.00022910       0.00026434      -0.00000000      -0.00018812      -0.00000000       0.00007539      -0.00003691      -0.00000000      -0.00020407       0.00020091      -0.00000000       0.00007539      -0.00003691      -0.00000000       0.00000000      -0.00043947       0.00000000      -0.00061884       0.00022910       0.00026434      -0.00061884       0.00087033       0.00061884       0.00000000      -0.00003691      -0.00007539      -0.00000000      -0.00018812      -0.00000000       0.00061884       0.00087033       0.00061884       0.00000000       0.00660911       0.00667311       0.00000000       0.00086584       0.00000000       0.00061884       0.00022910      -0.00026434       0.00000000       0.00166790       0.00000000      -0.00667311       0.00660911       0.00000000       0.00000000      -0.00069160       0.00000000      -0.00007539      -0.00003691      -0.00000000      -0.00061884       0.00087033      -0.00061884      -0.00061884       0.00022910      -0.00026434      -0.00000000      -0.00018812       0.00000000      -0.00000000      -0.00003691       0.00007539       0.00000000       0.00016418       0.00000000       0.00026434       0.00022910       0.00061884       0.00000000      -0.00069160       0.00000000       0.00026434       0.00022910      -0.00061884 </v>
    <v>       0.00000000      -0.00000000       0.00086584       0.00000000       0.00000000      -0.06714916       0.00000000      -0.00000000       0.00086584       0.00000000       0.00000000      -0.00001476       0.00000000      -0.00667311       0.00660911       0.00667311       0.00000000       0.00660911       0.00061884       0.00026434       0.00022910      -0.00026434      -0.00061884       0.00022910       0.00061884      -0.00061884       0.00087033       0.00020407       0.00000000       0.00020091       0.00061884      -0.00061884       0.00087033      -0.00000000      -0.00020407       0.00020091       0.00061884       0.00026434       0.00022910       0.00667311       0.00000000       0.00660911       0.00000000      -0.00667311       0.00660911      -0.00026434      -0.00061884       0.00022910      -0.00667311       0.00000000       0.00660911      -0.00000000       0.00667311       0.00660911       0.00026434       0.00061884       0.00022910      -0.00061884      -0.00026434       0.00022910      -0.00000000       0.00000000       0.00166790       0.00061884       0.00061884       0.00087033       0.00000000       0.00000000       0.00016418      -0.00061884      -0.00061884       0.00087033      -0.00007539       0.00000000      -0.00003691       0.00061884      -0.00026434       0.00022910       0.00026434      -0.00061884       0.00022910      -0.00000000       0.00007539      -0.00003691       0.00000000       0.00000000      -0.00069160       0.00000000       0.00000000       0.00086584       0.00000000       0.00000000      -0.00069160       0.00000000      -0.00000000      -0.00018812      -0.00061884       0.00061884       0.00087033       0.00000000       0.00020407       0.00020091      -0.00061884       0.00061884       0.00087033      -0.00020407      -0.00000000       0.00020091       0.00000000      -0.00007539      -0.00003691      -0.00026434       0.00061884       0.00022910      -0.00061884       0.00026434       0.00022910       0.00007539      -0.00000000      -0.00003691      -0.00000000      -0.00000000      -0.00018812      -0.00000000      -0.00000000      -0.00001476      -0.00000000      -0.00000000      -0.00018812       0.00000000       0.00000000      -0.00043947      -0.00061884       0.00026434       0.00022910      -0.00026434       0.00061884       0.00022910      -0.00000000      -0.00007539      -0.00003691       0.00007539      -0.00000000      -0.00003691       0.00026434       0.00061884       0.00022910      -0.00000000       0.00667311       0.00660911      -0.00667311       0.00000000       0.00660911      -0.00061884      -0.00026434       0.00022910       0.00000000      -0.00000000      -0.00069160       0.00000000       0.00000000       0.00086584       0.00000000       0.00000000      -0.00069160       0.00000000       0.00000000      -0.00018812       0.00026434      -0.00061884       0.00022910       0.00061884      -0.00026434       0.00022910      -0.00007539       0.00000000      -0.00003691      -0.00000000       0.00007539      -0.00003691       0.00000000       0.00000000       0.00016418       0.00061884       0.00061884       0.00087033       0.00000000       0.00000000       0.00166790      -0.00061884      -0.00061884       0.00087033 </v>
    <v>       0.00020091       0.00020407       0.00000000       0.00660911       0.00667311       0.00000000      -0.06714916       0.00000000       0.00000000       0.00660911       0.00667311       0.00000000       0.00022910       0.00061884      -0.00026434       0.00086584       0.00000000       0.00000000       0.00660911      -0.00000000       0.00667311       0.00087033       0.00061884       0.00061884      -0.00001476       0.00000000      -0.00000000       0.00022910      -0.00026434       0.00061884       0.00020091      -0.00000000       0.00020407       0.00022910      -0.00026434       0.00061884       0.00022910       0.00061884      -0.00026434       0.00087033       0.00061884       0.00061884       0.00660911      -0.00000000       0.00667311       0.00086584       0.00000000       0.00000000       0.00087033       0.00061884      -0.00061884       0.00660911       0.00000000      -0.00667311       0.00086584       0.00000000      -0.00000000       0.00022910       0.00061884       0.00026434       0.00022910       0.00026434      -0.00061884      -0.00069160       0.00000000       0.00000000       0.00022910       0.00026434       0.00061884       0.00016418       0.00000000       0.00000000      -0.00018812      -0.00000000      -0.00000000      -0.00003691      -0.00000000      -0.00007539       0.00087033      -0.00061884       0.00061884       0.00022910      -0.00061884       0.00026434      -0.00003691      -0.00007539       0.00000000       0.00166790       0.00000000       0.00000000       0.00660911      -0.00667311       0.00000000      -0.00069160       0.00000000       0.00000000       0.00020091       0.00000000      -0.00020407       0.00022910      -0.00026434      -0.00061884      -0.00001476      -0.00000000       0.00000000       0.00022910      -0.00026434      -0.00061884      -0.00003691      -0.00000000       0.00007539      -0.00018812       0.00000000      -0.00000000       0.00022910      -0.00061884      -0.00026434       0.00087033      -0.00061884      -0.00061884      -0.00043947       0.00000000       0.00000000      -0.00003691       0.00007539      -0.00000000       0.00020091      -0.00020407      -0.00000000      -0.00003691       0.00007539      -0.00000000      -0.00003691      -0.00000000       0.00007539       0.00087033      -0.00061884      -0.00061884       0.00022910      -0.00061884      -0.00026434      -0.00018812      -0.00000000       0.00000000       0.00087033       0.00061884      -0.00061884       0.00022910       0.00061884       0.00026434       0.00086584       0.00000000      -0.00000000       0.00660911       0.00000000      -0.00667311      -0.00003691      -0.00007539       0.00000000      -0.00069160       0.00000000       0.00000000       0.00660911      -0.00667311       0.00000000       0.00166790      -0.00000000       0.00000000      -0.00018812      -0.00000000      -0.00000000       0.00022910      -0.00061884       0.00026434       0.00087033      -0.00061884       0.00061884      -0.00003691       0.00000000      -0.00007539       0.00022910       0.00026434      -0.00061884       0.00016418       0.00000000       0.00000000       0.00022910       0.00026434       0.00061884      -0.00069160       0.00000000      -0.00000000 </v>
    <v>       0.00020407       0.00020091       0.00000000       0.00667311       0.00660911      -0.00000000       0.00000000      -0.06714916       0.00000000       0.00667311       0.00660911      -0.00000000       0.00061884       0.00087033      -0.00061884       0.00000000       0.00660911      -0.00667311      -0.00000000       0.00086584       0.00000000       0.00061884       0.00022910       0.00026434       0.00000000       0.00020091      -0.00020407      -0.00026434       0.00022910      -0.00061884      -0.00000000      -0.00001476       0.00000000      -0.00026434       0.00022910      -0.00061884       0.00061884       0.00087033      -0.00061884       0.00061884       0.00022910       0.00026434      -0.00000000       0.00086584       0.00000000       0.00000000       0.00660911      -0.00667311       0.00061884       0.00022910      -0.00026434       0.00000000       0.00086584       0.00000000       0.00000000       0.00660911       0.00667311       0.00061884       0.00087033       0.00061884       0.00026434       0.00022910      -0.00061884       0.00000000      -0.00069160       0.00000000       0.00026434       0.00022910       0.00061884       0.00000000       0.00016418       0.00000000      -0.00000000      -0.00003691       0.00007539       0.00000000      -0.00018812       0.00000000      -0.00061884       0.00022910      -0.00026434      -0.00061884       0.00087033      -0.00061884      -0.00007539      -0.00003691       0.00000000      -0.00000000      -0.00069160       0.00000000      -0.00667311       0.00660911       0.00000000       0.00000000       0.00166790      -0.00000000       0.00000000      -0.00001476      -0.00000000      -0.00026434       0.00022910       0.00061884      -0.00000000       0.00020091       0.00020407      -0.00026434       0.00022910       0.00061884      -0.00000000      -0.00018812      -0.00000000      -0.00000000      -0.00003691      -0.00007539      -0.00061884       0.00087033       0.00061884      -0.00061884       0.00022910       0.00026434       0.00000000      -0.00043947       0.00000000       0.00007539      -0.00003691      -0.00000000      -0.00020407       0.00020091      -0.00000000       0.00007539      -0.00003691      -0.00000000      -0.00000000      -0.00018812      -0.00000000      -0.00061884       0.00022910       0.00026434      -0.00061884       0.00087033       0.00061884       0.00000000      -0.00003691      -0.00007539       0.00061884       0.00022910      -0.00026434       0.00061884       0.00087033       0.00061884       0.00000000       0.00660911       0.00667311       0.00000000       0.00086584       0.00000000      -0.00007539      -0.00003691      -0.00000000       0.00000000       0.00166790       0.00000000      -0.00667311       0.00660911       0.00000000       0.00000000      -0.00069160       0.00000000      -0.00000000      -0.00003691       0.00007539      -0.00061884       0.00087033      -0.00061884      -0.00061884       0.00022910      -0.00026434      -0.00000000      -0.00018812       0.00000000       0.00026434       0.00022910      -0.00061884       0.00000000       0.00016418       0.00000000       0.00026434       0.00022910       0.00061884       0.00000000      -0.00069160       0.00000000 </v>
    <v>       0.00000000       0.00000000      -0.00001476       0.00000000      -0.00000000       0.00086584       0.00000000       0.00000000      -0.06714916       0.00000000      -0.00000000       0.00086584      -0.00026434      -0.00061884       0.00022910       0.00000000      -0.00667311       0.00660911       0.00667311       0.00000000       0.00660911       0.00061884       0.00026434       0.00022910      -0.00000000      -0.00020407       0.00020091       0.00061884      -0.00061884       0.00087033       0.00020407       0.00000000       0.00020091       0.00061884      -0.00061884       0.00087033      -0.00026434      -0.00061884       0.00022910       0.00061884       0.00026434       0.00022910       0.00667311       0.00000000       0.00660911       0.00000000      -0.00667311       0.00660911      -0.00061884      -0.00026434       0.00022910      -0.00667311       0.00000000       0.00660911      -0.00000000       0.00667311       0.00660911       0.00026434       0.00061884       0.00022910      -0.00061884      -0.00061884       0.00087033      -0.00000000       0.00000000       0.00166790       0.00061884       0.00061884       0.00087033       0.00000000       0.00000000       0.00016418      -0.00000000       0.00007539      -0.00003691      -0.00007539       0.00000000      -0.00003691       0.00061884      -0.00026434       0.00022910       0.00026434      -0.00061884       0.00022910       0.00000000      -0.00000000      -0.00018812       0.00000000       0.00000000      -0.00069160       0.00000000       0.00000000       0.00086584       0.00000000       0.00000000      -0.00069160      -0.00020407      -0.00000000       0.00020091      -0.00061884       0.00061884       0.00087033       0.00000000       0.00020407       0.00020091      -0.00061884       0.00061884       0.00087033       0.00007539      -0.00000000      -0.00003691       0.00000000      -0.00007539      -0.00003691      -0.00026434       0.00061884       0.00022910      -0.00061884       0.00026434       0.00022910       0.00000000       0.00000000      -0.00043947      -0.00000000      -0.00000000      -0.00018812      -0.00000000      -0.00000000      -0.00001476      -0.00000000      -0.00000000      -0.00018812       0.00007539      -0.00000000      -0.00003691      -0.00061884       0.00026434       0.00022910      -0.00026434       0.00061884       0.00022910      -0.00000000      -0.00007539      -0.00003691      -0.00061884      -0.00026434       0.00022910       0.00026434       0.00061884       0.00022910      -0.00000000       0.00667311       0.00660911      -0.00667311       0.00000000       0.00660911       0.00000000       0.00000000      -0.00018812       0.00000000      -0.00000000      -0.00069160       0.00000000       0.00000000       0.00086584       0.00000000       0.00000000      -0.00069160      -0.00000000       0.00007539      -0.00003691       0.00026434      -0.00061884       0.00022910       0.00061884      -0.00026434       0.00022910      -0.00007539       0.00000000      -0.00003691      -0.00061884      -0.00061884       0.00087033       0.00000000       0.00000000       0.00016418       0.00061884       0.00061884       0.00087033       0.00000000       0.00000000       0.00166790 </v>
    <v>       0.00660911       0.00667311       0.00000000       0.00020091       0.00020407       0.00000000       0.00660911       0.00667311       0.00000000      -0.06714916       0.00000000       0.00000000       0.00087033       0.00061884       0.00061884       0.00022910       0.00061884      -0.00026434       0.00086584       0.00000000       0.00000000       0.00660911      -0.00000000       0.00667311       0.00022910      -0.00026434       0.00061884      -0.00001476       0.00000000      -0.00000000       0.00022910      -0.00026434       0.00061884       0.00020091      -0.00000000       0.00020407       0.00086584       0.00000000       0.00000000       0.00022910       0.00061884      -0.00026434       0.00087033       0.00061884       0.00061884       0.00660911      -0.00000000       0.00667311       0.00022910       0.00061884       0.00026434       0.00087033       0.00061884      -0.00061884       0.00660911       0.00000000      -0.00667311       0.00086584       0.00000000      -0.00000000       0.00016418       0.00000000       0.00000000       0.00022910       0.00026434      -0.00061884      -0.00069160       0.00000000       0.00000000       0.00022910       0.00026434       0.00061884       0.00022910      -0.00061884       0.00026434      -0.00018812      -0.00000000      -0.00000000      -0.00003691      -0.00000000      -0.00007539       0.00087033      -0.00061884       0.00061884      -0.00069160       0.00000000       0.00000000      -0.00003691      -0.00007539       0.00000000       0.00166790       0.00000000       0.00000000       0.00660911      -0.00667311       0.00000000       0.00022910      -0.00026434      -0.00061884       0.00020091       0.00000000      -0.00020407       0.00022910      -0.00026434      -0.00061884      -0.00001476      -0.00000000       0.00000000       0.00087033      -0.00061884      -0.00061884      -0.00003691      -0.00000000       0.00007539      -0.00018812       0.00000000      -0.00000000       0.00022910      -0.00061884      -0.00026434      -0.00003691       0.00007539      -0.00000000      -0.00043947       0.00000000       0.00000000      -0.00003691       0.00007539      -0.00000000       0.00020091      -0.00020407      -0.00000000      -0.00018812      -0.00000000       0.00000000      -0.00003691      -0.00000000       0.00007539       0.00087033      -0.00061884      -0.00061884       0.00022910      -0.00061884      -0.00026434       0.00660911       0.00000000      -0.00667311       0.00087033       0.00061884      -0.00061884       0.00022910       0.00061884       0.00026434       0.00086584       0.00000000      -0.00000000       0.00166790      -0.00000000       0.00000000      -0.00003691      -0.00007539       0.00000000      -0.00069160       0.00000000       0.00000000       0.00660911      -0.00667311       0.00000000      -0.00003691       0.00000000      -0.00007539      -0.00018812      -0.00000000      -0.00000000       0.00022910      -0.00061884       0.00026434       0.00087033      -0.00061884       0.00061884      -0.00069160       0.00000000      -0.00000000       0.00022910       0.00026434      -0.00061884       0.00016418       0.00000000       0.00000000       0.00022910       0.00026434       0.00061884 </v>
[...]
       <r>    19.4805     0.0000   648.0000 </r>
       <r>    19.7587     0.0000   648.0000 </r>
       <r>    20.0370     0.0000   648.0000 </r>
       <r>    20.3152     0.0000   648.0000 </r>
       <r>    20.5935     0.0000   648.0000 </r>
       <r>    20.8717     0.0000   648.0000 </r>
       <r>    21.1500     0.0000   648.0000 </r>
       <r>    21.4282     0.0000   648.0000 </r>
       <r>    21.7065     0.0000   648.0000 </r>
      </set>
      <set comment="spin 2">
       <r>   -61.7683     0.0000     0.0000 </r>
       <r>   -61.4900     0.0000     0.0000 </r>
       <r>   -61.2118     0.0000     0.0000 </r>
       <r>   -60.9335     0.0000     0.0000 </r>
       <r>   -60.6553     0.0000     0.0000 </r>
       <r>   -60.3770     0.0000     0.0000 </r>
       <r>   -60.0988     0.0000     0.0000 </r>
       <r>   -59.8205     0.0000     0.0000 </r>
       <r>   -59.5423     0.0000     0.0000 </r>
       <r>   -59.2640     0.0000     0.0000 </r>
       <r>   -58.9858     0.0000     0.0000 </r>
       <r>   -58.7075    -0.0000    -0.0000 </r>
       <r>   -58.4293    -0.0000    -0.0000 </r>
       <r>   -58.1510    -0.0000    -0.0000 </r>
       <r>   -57.8728    -0.0000    -0.0000 </r>
       <r>   -57.5945    -0.0629    -0.0175 </r>
       <r>   -57.3163   -13.6937    -3.8278 </r>
       <r>   -57.0380   205.7460    53.4209 </r>
       <r>   -56.7598   517.3909   197.3844 </r>
       <r>   -56.4815   -18.3974   192.2653 </r>
       <r>   -56.2033    -0.9533   192.0001 </r>
       <r>   -55.9250    -0.0003   192.0000 </r>
       <r>   -55.6468    -0.0000   192.0000 </r>
       <r>   -55.3685     0.0000   192.0000 </r>
       <r>   -55.0903     0.0000   192.0000 </r>
       <r>   -54.8120     0.0000   192.0000 </r>
       <r>   -54.5338     0.0000   192.0000 </r>
       <r>   -54.2555     0.0000   192.0000 </r>
       <r>   -53.9773     0.0000   192.0000 </r>
       <r>   -53.6990     0.0000   192.0000 </r>
       <r>   -53.4208     0.0000   192.0000 </r>
       <r>   -53.1425     0.0000   192.0000 </r>
       <r>   -52.8643     0.0000   192.0000 </r>
       <r>   -52.5860     0.0000   192.0000 </r>
       <r>   -52.3078     0.0000   192.0000 </r>
       <r>   -52.0295     0.0000   192.0000 </r>
       <r>   -51.7513     0.0000   192.0000 </r>
       <r>   -51.4731     0.0000   192.0000 </r>
       <r>   -51.1948     0.0000   192.0000 </r>
       <r>   -50.9166     0.0000   192.0000 </r>
       <r>   -50.6383     0.0000   192.0000 </r>
       <r>   -50.3601     0.0000   192.0000 </r>
       <r>   -50.0818     0.0000   192.0000 </r>
       <r>   -49.8036     0.0000   192.0000 </r>
       <r>   -49.5253     0.0000   192.0000 </r>
       <r>   -49.2471     0.0000   192.0000 </r>
       <r>   -48.9688     0.0000   192.0000 </r>
       <r>   -48.6906     0.0000   192.0000 </r>
       <r>   -48.4123     0.0000   192.0000 </r>
       <r>   -48.1341     0.0000   192.0000 </r>
       <r>   -47.8558     0.0000   192.0000 </r>
       <r>   -47.5776     0.0000   192.0000 </r>
       <r>   -47.2993     0.0000   192.0000 </r>
       <r>   -47.0211     0.0000   192.0000 </r>
       <r>   -46.7428     0.0000   192.0000 </r>
       <r>   -46.4646     0.0000   192.0000 </r>
       <r>   -46.1863     0.0000   192.0000 </r>
       <r>   -45.9081     0.0000   192.0000 </r>
       <r>   -45.6298     0.0000   192.0000 </r>
       <r>   -45.3516     0.0000   192.0000 </r>
       <r>   -45.0733     0.0000   192.0000 </r>
       <r>   -44.7951     0.0000   192.0000 </r>
       <r>   -44.5168     0.0000   192.0000 </r>
       <r>   -44.2386     0.0000   192.0000 </r>
       <r>   -43.9603     0.0000   192.0000 </r>
       <r>   -43.6821     0.0000   192.0000 </r>
       <r>   -43.4038     0.0000   192.0000 </r>
       <r>   -43.1256     0.0000   192.0000 </r>
       <r>   -42.8473     0.0000   192.0000 </r>
       <r>   -42.5691     0.0000   192.0000 </r>
       <r>   -42.2908     0.0000   192.0000 </r>
       <r>   -42.0126     0.0000   192.0000 </r>
       <r>   -41.7343     0.0000   192.0000 </r>
       <r>   -41.4561     0.0000   192.0000 </r>
       <r>   -41.1778     0.0000   192.0000 </r>
       <r>   -40.8996     0.0000   192.0000 </r>
       <r>   -40.6213     0.0000   192.0000 </r>
       <r>   -40.3431     0.0000   192.0000 </r>
       <r>   -40.0648     0.0000   192.0000 </r>
       <r>   -39.7866     0.0000   192.0000 </r>
       <r>   -39.5083     0.0000   192.0000 </r>
       <r>   -39.2301     0.0000   192.0000 </r>
       <r>   -38.9518     0.0000   192.0000 </r>
       <r>   -38.6736     0.0000   192.0000 </r>
       <r>   -38.3953     0.0000   192.0000 </r>
       <r>   -38.1171     0.0000   192.0000 </r>
       <r>   -37.8388     0.0000   192.0000 </r>
       <r>   -37.5606     0.0000   192.0000 </r>
       <r>   -37.2823     0.0000   192.0000 </r>
       <r>   -37.0041     0.0000   192.0000 </r>
       <r>   -36.7259     0.0000   192.0000 </r>
       <r>   -36.4476     0.0000   192.0000 </r>
       <r>   -36.1694     0.0000   192.0000 </r>
       <r>   -35.8911     0.0000   192.0000 </r>
       <r>   -35.6129     0.0000   192.0000 </r>
       <r>   -35.3346     0.0000   192.0000 </r>
       <r>   -35.0564     0.0000   192.0000 </r>
       <r>   -34.7781     0.0000   192.0000 </r>
       <r>   -34.4999     0.0000   192.0000 </r>
       <r>   -34.2216     0.0000   192.0000 </r>
       <r>   -33.9434     0.0000   192.0000 </r>
       <r>   -33.6651     0.0000   192.0000 </r>
       <r>   -33.3869     0.0000   192.0000 </r>
       <r>   -33.1086     0.0000   192.0000 </r>
       <r>   -32.8304     0.0000   192.0000 </r>
       <r>   -32.5521     0.0000   192.0000 </r>
       <r>   -32.2739     0.0000   192.0000 </r>
       <r>   -31.9956     0.0000   192.0000 </r>
       <r>   -31.7174     0.0000   192.0000 </r>
       <r>   -31.4391     0.0000   192.0000 </r>
       <r>   -31.1609     0.0000   192.0000 </r>
       <r>   -30.8826     0.0000   192.0000 </r>
       <r>   -30.6044     0.0000   192.0000 </r>
       <r>   -30.3261     0.0000   192.0000 </r>
       <r>   -30.0479     0.0000   192.0000 </r>
       <r>   -29.7696     0.0000   192.0000 </r>
       <r>   -29.4914     0.0000   192.0000 </r>
       <r>   -29.2131     0.0000   192.0000 </r>
       <r>   -28.9349     0.0000   192.0000 </r>
       <r>   -28.6566     0.0000   192.0000 </r>
       <r>   -28.3784     0.0000   192.0000 </r>
       <r>   -28.1001     0.0000   192.0000 </r>
       <r>   -27.8219     0.0000   192.0000 </r>
       <r>   -27.5436     0.0000   192.0000 </r>
       <r>   -27.2654     0.0000   192.0000 </r>
       <r>   -26.9871     0.0000   192.0000 </r>
       <r>   -26.7089     0.0000   192.0000 </r>
       <r>   -26.4306     0.0000   192.0000 </r>
       <r>   -26.1524     0.0000   192.0000 </r>
       <r>   -25.8741     0.0000   192.0000 </r>
       <r>   -25.5959     0.0000   192.0000 </r>
       <r>   -25.3176     0.0000   192.0000 </r>
       <r>   -25.0394     0.0000   192.0000 </r>
       <r>   -24.7611     0.0000   192.0000 </r>
       <r>   -24.4829     0.0000   192.0000 </r>
       <r>   -24.2046     0.0000   192.0000 </r>
       <r>   -23.9264     0.0000   192.0000 </r>
       <r>   -23.6481     0.0000   192.0000 </r>
       <r>   -23.3699     0.0000   192.0000 </r>
       <r>   -23.0916     0.0000   192.0000 </r>
       <r>   -22.8134     0.0000   192.0000 </r>
       <r>   -22.5351     0.0000   192.0000 </r>
       <r>   -22.2569     0.0000   192.0000 </r>
       <r>   -21.9787     0.0000   192.0000 </r>
       <r>   -21.7004     0.0000   192.0000 </r>
       <r>   -21.4222     0.0000   192.0000 </r>
       <r>   -21.1439     0.0000   192.0000 </r>
       <r>   -20.8657     0.0000   192.0000 </r>
       <r>   -20.5874     0.0000   192.0000 </r>
       <r>   -20.3092     0.0000   192.0000 </r>
       <r>   -20.0309     0.0000   192.0000 </r>
       <r>   -19.7527     0.0000   192.0000 </r>
       <r>   -19.4744     0.0000   192.0000 </r>
       <r>   -19.1962     0.0000   192.0000 </r>
       <r>   -18.9179     0.0000   192.0000 </r>
       <r>   -18.6397     0.0000   192.0000 </r>
       <r>   -18.3614     0.0000   192.0000 </r>
       <r>   -18.0832     0.0000   192.0000 </r>
       <r>   -17.8049     0.0000   192.0000 </r>
       <r>   -17.5267     0.0000   192.0000 </r>
       <r>   -17.2484     0.0000   192.0000 </r>
       <r>   -16.9702     0.0000   192.0000 </r>
       <r>   -16.6919     0.0000   192.0000 </r>
       <r>   -16.4137     0.0000   192.0000 </r>
       <r>   -16.1354     0.0000   192.0000 </r>
       <r>   -15.8572     0.0000   192.0000 </r>
       <r>   -15.5789     0.0000   192.0000 </r>
       <r>   -15.3007     0.0000   192.0000 </r>
       <r>   -15.0224     0.0000   192.0000 </r>
       <r>   -14.7442     0.0000   192.0000 </r>
       <r>   -14.4659     0.0000   192.0000 </r>
       <r>   -14.1877     0.0000   192.0000 </r>
       <r>   -13.9094     0.0000   192.0000 </r>
       <r>   -13.6312     0.0000   192.0000 </r>
       <r>   -13.3529     0.0000   192.0000 </r>
       <r>   -13.0747     0.0000   192.0000 </r>
       <r>   -12.7964     0.0000   192.0000 </r>
       <r>   -12.5182     0.0000   192.0000 </r>
       <r>   -12.2399     0.0000   192.0000 </r>
       <r>   -11.9617     0.0000   192.0000 </r>
       <r>   -11.6834     0.0000   192.0000 </r>
       <r>   -11.4052     0.0000   192.0000 </r>
       <r>   -11.1269     0.0000   192.0000 </r>
       <r>   -10.8487     0.0000   192.0000 </r>
       <r>   -10.5704     0.0000   192.0000 </r>
       <r>   -10.2922     0.0000   192.0000 </r>
       <r>   -10.0139     0.0000   192.0000 </r>
       <r>    -9.7357     0.0000   192.0000 </r>
       <r>    -9.4574     0.0000   192.0000 </r>
       <r>    -9.1792     0.0000   192.0000 </r>
       <r>    -8.9009     0.0000   192.0000 </r>
       <r>    -8.6227     0.0000   192.0000 </r>
       <r>    -8.3444     0.0000   192.0000 </r>
       <r>    -8.0662     0.0000   192.0000 </r>
       <r>    -7.7879     0.0000   192.0000 </r>
       <r>    -7.5097     0.0000   192.0000 </r>
       <r>    -7.2314     0.0000   192.0000 </r>
       <r>    -6.9532     0.0000   192.0000 </r>
       <r>    -6.6750     0.0000   192.0000 </r>
       <r>    -6.3967     0.0000   192.0000 </r>
       <r>    -6.1185     0.0000   192.0000 </r>
       <r>    -5.8402     0.0000   192.0000 </r>
       <r>    -5.5620     0.0000   192.0000 </r>
       <r>    -5.2837     0.0000   192.0000 </r>
       <r>    -5.0055     0.0000   192.0000 </r>
       <r>    -4.7272     0.0000   192.0000 </r>
       <r>    -4.4490     0.0000   192.0000 </r>
       <r>    -4.1707     0.0000   192.0000 </r>
       <r>    -3.8925    -0.0000   192.0000 </r>
       <r>    -3.6142    -0.0000   192.0000 </r>
       <r>    -3.3360    -0.0000   192.0000 </r>
       <r>    -3.0577    -0.0000   192.0000 </r>
       <r>    -2.7795    -0.0000   192.0000 </r>
       <r>    -2.5012    -0.0014   191.9996 </r>
       <r>    -2.2230    -0.0067   191.9977 </r>
       <r>    -1.9447     0.4166   192.1137 </r>
       <r>    -1.6665     1.5409   192.5424 </r>
       <r>    -1.3882     1.6067   192.9895 </r>
       <r>    -1.1100     3.9693   194.0939 </r>
       <r>    -0.8317     0.8011   194.3168 </r>
       <r>    -0.5535     5.1093   195.7385 </r>
       <r>    -0.2752     3.6490   196.7538 </r>
       <r>     0.0030     4.8001   198.0894 </r>
       <r>     0.2813     1.4796   198.5011 </r>
       <r>     0.5595     9.2877   201.0854 </r>
       <r>     0.8378     5.0767   202.4980 </r>
       <r>     1.1160     6.3175   204.2558 </r>
       <r>     1.3943     4.3561   205.4679 </r>
       <r>     1.6725    12.3045   208.8916 </r>
       <r>     1.9508    12.0992   212.2582 </r>
       <r>     2.2290    10.2114   215.0995 </r>
       <r>     2.5073    25.2836   222.1347 </r>
       <r>     2.7855    38.2757   232.7848 </r>
       <r>     3.0638    30.6593   241.3158 </r>
       <r>     3.3420    59.3537   257.8309 </r>
       <r>     3.6203    67.4239   276.5915 </r>
       <r>     3.8985    64.7067   294.5961 </r>
       <r>     4.1768    82.6277   317.5872 </r>
       <r>     4.4550   105.4080   346.9169 </r>
       <r>     4.7333   118.4487   379.8751 </r>
       <r>     5.0115    92.4248   405.5923 </r>
       <r>     5.2898   103.0170   434.2566 </r>
       <r>     5.5680    93.5157   460.2773 </r>
       <r>     5.8463   111.6409   491.3413 </r>
       <r>     6.1245   119.1113   524.4839 </r>
       <r>     6.4028    35.7617   534.4346 </r>
       <r>     6.6810    11.2212   537.5568 </r>
       <r>     6.9593     8.6557   539.9653 </r>
       <r>     7.2375    17.0499   544.7094 </r>
       <r>     7.5158    11.8198   547.9982 </r>
       <r>     7.7940     8.5192   550.3687 </r>
       <r>     8.0722     7.6061   552.4851 </r>
       <r>     8.3505    14.0462   556.3934 </r>
       <r>     8.6287     8.2730   558.6954 </r>
       <r>     8.9070    10.9475   561.7415 </r>
       <r>     9.1852     4.6498   563.0353 </r>
       <r>     9.4635    11.2264   566.1591 </r>
       <r>     9.7417     5.7131   567.7487 </r>
       <r>    10.0200     0.6239   567.9223 </r>
       <r>    10.2982    10.0615   570.7219 </r>
       <r>    10.5765     6.0414   572.4029 </r>
       <r>    10.8547     5.2739   573.8704 </r>
       <r>    11.1330    12.7272   577.4117 </r>
       <r>    11.4112    12.7064   580.9473 </r>
       <r>    11.6895     8.4642   583.3024 </r>
       <r>    11.9677     6.1082   585.0020 </r>
       <r>    12.2460     9.2881   587.5865 </r>
       <r>    12.5242    11.3420   590.7423 </r>
       <r>    12.8025     5.7606   592.3452 </r>
       <r>    13.0807    13.7537   596.1722 </r>
       <r>    13.3590    10.9750   599.2259 </r>
       <r>    13.6372     4.3746   600.4432 </r>
       <r>    13.9155    10.3212   603.3150 </r>
       <r>    14.1937     8.8940   605.7898 </r>
       <r>    14.4720     9.8095   608.5193 </r>
       <r>    14.7502     8.8278   610.9756 </r>
       <r>    15.0285    11.4093   614.1502 </r>
       <r>    15.3067    19.2947   619.5189 </r>
       <r>    15.5850    15.2026   623.7490 </r>
       <r>    15.8632     8.0665   625.9935 </r>
       <r>    16.1415    16.3857   630.5528 </r>
       <r>    16.4197    10.1864   633.3872 </r>
       <r>    16.6980    10.9199   636.4256 </r>
       <r>    16.9762    14.7374   640.5263 </r>
       <r>    17.2545     7.8483   642.7101 </r>
       <r>    17.5327    11.4269   645.8896 </r>
       <r>    17.8110     5.7268   647.4831 </r>
       <r>    18.0892     1.9599   648.0284 </r>
       <r>    18.3675    -0.0995   648.0007 </r>
       <r>    18.6457    -0.0026   648.0000 </r>
       <r>    18.9240    -0.0000   648.0000 </r>
       <r>    19.2022    -0.0000   648.0000 </r>
       <r>    19.4805     0.0000   648.0000 </r>
       <r>    19.7587     0.0000   648.0000 </r>
       <r>    20.0370     0.0000   648.0000 </r>
       <r>    20.3152     0.0000   648.0000 </r>
       <r>    20.5935     0.0000   648.0000 </r>
       <r>    20.8717     0.0000   648.0000 </r>
       <r>    21.1500     0.0000   648.0000 </r>
       <r>    21.4282     0.0000   648.0000 </r>
       <r>    21.7065     0.0000   648.0000 </r>
      </set>
     </set>
    </array>
   </total>
  </dos>
 </calculation>
 <structure name="finalpos" >
  <crystal>
   <varray name="basis" >
    <v>       0.00000000       7.47300000       7.47300000 </v>
    <v>       7.47300000       0.00000000       7.47300000 </v>
    <v>       7.47300000       7.47300000       0.00000000 </v>
   </varray>
   <i name="volume">    834.67026563 </i>
   <varray name="rec_basis" >
    <v>      -0.06690753       0.06690753       0.06690753 </v>
    <v>       0.06690753      -0.06690753       0.06690753 </v>
    <v>       0.06690753       0.06690753      -0.06690753 </v>
   </varray>
  </crystal>
  <varray name="positions" >
   <v>       0.00000000       0.00000000       0.00000000 </v>
   <v>       0.00000000       0.00000000       0.25000000 </v>
   <v>       0.00000000       0.00000000       0.50000000 </v>
   <v>       0.00000000       0.00000000       0.75000000 </v>
   <v>       0.00000000       0.25000000       0.00000000 </v>
   <v>       0.00000000       0.25000000       0.25000000 </v>
   <v>       0.00000000       0.25000000       0.50000000 </v>
   <v>       0.00000000       0.25000000       0.75000000 </v>
   <v>       0.00000000       0.50000000       0.00000000 </v>
   <v>       0.00000000       0.50000000       0.25000000 </v>
   <v>       0.00000000       0.50000000       0.50000000 </v>
   <v>       0.00000000       0.50000000       0.75000000 </v>
   <v>       0.00000000       0.75000000       0.00000000 </v>
   <v>       0.00000000       0.75000000       0.25000000 </v>
   <v>       0.00000000       0.75000000       0.50000000 </v>
   <v>       0.00000000       0.75000000       0.75000000 </v>
   <v>       0.25000000       0.00000000       0.00000000 </v>
   <v>       0.25000000       0.00000000       0.25000000 </v>
   <v>       0.25000000       0.00000000       0.50000000 </v>
   <v>       0.25000000       0.00000000       0.75000000 </v>
   <v>       0.25000000       0.25000000       0.00000000 </v>
   <v>       0.25000000       0.25000000       0.25000000 </v>
   <v>       0.25000000       0.25000000       0.50000000 </v>
   <v>       0.25000000       0.25000000       0.75000000 </v>
   <v>       0.25000000       0.50000000       0.00000000 </v>
   <v>       0.25000000       0.50000000       0.25000000 </v>
   <v>       0.25000000       0.50000000       0.50000000 </v>
   <v>       0.25000000       0.50000000       0.75000000 </v>
   <v>       0.25000000       0.75000000       0.00000000 </v>
   <v>       0.25000000       0.75000000       0.25000000 </v>
   <v>       0.25000000       0.75000000       0.50000000 </v>
   <v>       0.25000000       0.75000000       0.75000000 </v>
   <v>       0.50000000       0.00000000       0.00000000 </v>
   <v>       0.50000000       0.00000000       0.25000000 </v>
   <v>       0.50000000       0.00000000       0.50000000 </v>
   <v>       0.50000000       0.00000000       0.75000000 </v>
   <v>       0.50000000       0.25000000       0.00000000 </v>
   <v>       0.50000000       0.25000000       0.25000000 </v>
   <v>       0.50000000       0.25000000       0.50000000 </v>
   <v>       0.50000000       0.25000000       0.75000000 </v>
   <v>       0.50000000       0.50000000       0.00000000 </v>
   <v>       0.50000000       0.50000000       0.25000000 </v>
   <v>       0.50000000       0.50000000       0.50000000 </v>
   <v>       0.50000000       0.50000000       0.75000000 </v>
   <v>       0.50000000       0.75000000       0.00000000 </v>
   <v>       0.50000000       0.75000000       0.25000000 </v>
   <v>       0.50000000       0.75000000       0.50000000 </v>
   <v>       0.50000000       0.75000000       0.75000000 </v>
   <v>       0.75000000       0.00000000       0.00000000 </v>
   <v>       0.75000000       0.00000000       0.25000000 </v>
   <v>       0.75000000       0.00000000       0.50000000 </v>
   <v>       0.75000000       0.00000000       0.75000000 </v>
   <v>       0.75000000       0.25000000       0.00000000 </v>
   <v>       0.75000000       0.25000000       0.25000000 </v>
   <v>       0.75000000       0.25000000       0.50000000 </v>
   <v>       0.75000000       0.25000000       0.75000000 </v>
   <v>       0.75000000       0.50000000       0.00000000 </v>
   <v>       0.75000000       0.50000000       0.25000000 </v>
   <v>       0.75000000       0.50000000       0.50000000 </v>
   <v>       0.75000000       0.50000000       0.75000000 </v>
   <v>       0.75000000       0.75000000       0.00000000 </v>
   <v>       0.75000000       0.75000000       0.25000000 </v>
   <v>       0.75000000       0.75000000       0.50000000 </v>
   <v>       0.75000000       0.75000000       0.75000000 </v>
  </varray>
 </structure>
</modeling>
