       N       E                     dE             d eps       ncg     rms          rms(c)
DAV:   1     0.159860570824E+05    0.15986E+05   -0.59696E+05 11544   0.223E+03
DAV:   2     0.115223058280E+04   -0.14834E+05   -0.14404E+05 10368   0.718E+02
DAV:   3    -0.343052488544E+03   -0.14953E+04   -0.12495E+04 10496   0.244E+02
DAV:   4    -0.431871719600E+03   -0.88819E+02   -0.86124E+02 11088   0.612E+01
DAV:   5    -0.433379499024E+03   -0.15078E+01   -0.15060E+01 11064   0.776E+00    0.676E+01
DAV:   6    -0.398064943450E+03    0.35315E+02   -0.59108E+02 10880   0.740E+01    0.480E+01
DAV:   7    -0.370399651306E+03    0.27665E+02   -0.11332E+02 10856   0.329E+01    0.601E+00
DAV:   8    -0.370357947795E+03    0.41704E-01   -0.12268E+00 11152   0.244E+00    0.294E+00
DAV:   9    -0.370217717547E+03    0.14023E+00   -0.20061E-01 11784   0.848E-01    0.774E-01
DAV:  10    -0.370222565969E+03   -0.48484E-02   -0.12628E-02 11592   0.217E-01    0.308E-01
DAV:  11    -0.370225903414E+03   -0.33374E-02   -0.53518E-03 11048   0.167E-01    0.102E-01
DAV:  12    -0.370225935683E+03   -0.32269E-04   -0.61335E-04 10824   0.582E-02    0.284E-02
DAV:  13    -0.370225943974E+03   -0.82907E-05   -0.30098E-05 10424   0.120E-02    0.200E-02
DAV:  14    -0.370225922513E+03    0.21461E-04   -0.94059E-06  9208   0.885E-03    0.576E-03
DAV:  15    -0.370225916208E+03    0.63052E-05   -0.12038E-06  5472   0.333E-03    0.202E-03
DAV:  16    -0.370225916170E+03    0.37078E-07   -0.21405E-07  5432   0.119E-03
   1 F= -.37022592E+03 E0= -.37019721E+03  d E =-.861287E-01  mag=    43.8751
 Found     1 degrees of freedom:
       N       E                     dE             d eps       ncg     rms          rms(c)
DAV:   1    -0.370129501595E+03    0.96415E-01   -0.22478E+00 20576   0.150E+01    0.556E-01
DAV:   2    -0.370224668828E+03   -0.95167E-01   -0.93962E-01 16232   0.162E+00    0.990E-01
DAV:   3    -0.370228570737E+03   -0.39019E-02   -0.38699E-02 19656   0.103E+00    0.121E+00
DAV:   4    -0.370226320775E+03    0.22500E-02   -0.73399E-03 18440   0.620E-01    0.688E-01
DAV:   5    -0.370225141451E+03    0.11793E-02   -0.12413E-03 17608   0.324E-01    0.182E-01
DAV:   6    -0.370225127292E+03    0.14159E-04   -0.30954E-04 20368   0.850E-02    0.166E-01
DAV:   7    -0.370225061271E+03    0.66021E-04   -0.64916E-05 17328   0.616E-02    0.139E-01
DAV:   8    -0.370225042449E+03    0.18822E-04   -0.67555E-05 17688   0.785E-02    0.153E-01
DAV:   9    -0.370224983846E+03    0.58603E-04   -0.13794E-04 18736   0.115E-01    0.155E-01
DAV:  10    -0.370224909186E+03    0.74661E-04   -0.10143E-04 21368   0.850E-02    0.308E-02
DAV:  11    -0.370224914709E+03   -0.55232E-05   -0.29541E-05 22120   0.331E-02    0.506E-02
DAV:  12    -0.370224909911E+03    0.47977E-05   -0.12382E-05 16904   0.275E-02    0.242E-02
DAV:  13    -0.370224908667E+03    0.12444E-05   -0.34188E-06 12488   0.146E-02    0.903E-03
DAV:  14    -0.370224908823E+03   -0.15585E-06   -0.89634E-07  8312   0.734E-03
   2 F= -.37022491E+03 E0= -.37019621E+03  d E =-.860938E-01  mag=    43.8751
       N       E                     dE             d eps       ncg     rms          rms(c)
DAV:   1    -0.369877924576E+03    0.34698E+00   -0.79469E+00 20672   0.276E+01    0.106E+00
DAV:   2    -0.370235498739E+03   -0.35757E+00   -0.34033E+00 16288   0.292E+00    0.288E+00
DAV:   3    -0.370230903256E+03    0.45955E-02   -0.17749E-01 19312   0.180E+00    0.151E+00
DAV:   4    -0.370234796166E+03   -0.38929E-02   -0.23587E-02 19256   0.121E+00    0.188E+00
DAV:   5    -0.370225799462E+03    0.89967E-02   -0.79092E-03 16904   0.864E-01    0.409E-01
DAV:   6    -0.370225630887E+03    0.16857E-03   -0.13421E-03 19688   0.201E-01    0.300E-01
DAV:   7    -0.370225444651E+03    0.18624E-03   -0.33859E-04 17568   0.130E-01    0.276E-01
DAV:   8    -0.370225284577E+03    0.16007E-03   -0.26824E-04 17648   0.146E-01    0.249E-01
DAV:   9    -0.370225345970E+03   -0.61394E-04   -0.48509E-04 17464   0.213E-01    0.365E-01
DAV:  10    -0.370224952167E+03    0.39380E-03   -0.50151E-04 20648   0.200E-01    0.147E-01
DAV:  11    -0.370224910983E+03    0.41184E-04   -0.16066E-04 20688   0.794E-02    0.509E-02
DAV:  12    -0.370224921240E+03   -0.10257E-04   -0.43915E-05 21464   0.495E-02    0.674E-02
DAV:  13    -0.370224908700E+03    0.12540E-04   -0.23737E-05 16912   0.421E-02    0.170E-02
DAV:  14    -0.370224912986E+03   -0.42862E-05   -0.63258E-06 17112   0.229E-02    0.420E-02
DAV:  15    -0.370224908765E+03    0.42211E-05   -0.40887E-06 12680   0.207E-02    0.906E-03
DAV:  16    -0.370224909169E+03   -0.40399E-06   -0.12169E-06  8288   0.925E-03
   3 F= -.37022491E+03 E0= -.37019621E+03  d E =-.860933E-01  mag=    43.8751
