 vasp.5.4.1 05Feb16 (build Oct 12 2016 17:31:35) complex                        
  
 executed on           IFC91_ompi date 2020.09.07  23:18:45
 running on    4 total cores
 distrk:  each k-point on    4 cores,    1 groups
 distr:  one band on NCORES_PER_BAND=   1 cores,    4 groups


--------------------------------------------------------------------------------------------------------


 INCAR:
 POTCAR:   PAW_PBE Ni_pv 06Sep2000                
 POTCAR:   PAW_PBE Ni_pv 06Sep2000                
  local pseudopotential read in
  partial core-charges read in
  atomic valenz-charges read in
  non local Contribution for L=           1  read in
    real space projection operators read in
  non local Contribution for L=           1  read in
    real space projection operators read in
  non local Contribution for L=           2  read in
    real space projection operators read in
  non local Contribution for L=           2  read in
    real space projection operators read in
  non local Contribution for L=           0  read in
    real space projection operators read in
  non local Contribution for L=           0  read in
    real space projection operators read in
    PAW grid and wavefunctions read in
 
   number of l-projection  operators is LMAX  =           6
   number of lm-projection operators is LMMAX =          18
 
 Optimization of the real space projectors (new method)

 maximal supplied QI-value         = 18.90
 optimisation between [QCUT,QGAM] = [ 10.96, 27.40] = [ 33.64,210.25] Ry 
 Optimized for a Real-space Cutoff    1.19 Angstroem

   l    n(q)    QCUT    max X(q) W(low)/X(q) W(high)/X(q)  e(spline) 
   1      9    10.960     3.231    0.64E-06    0.38E-05    0.29E-07
   1      9    10.960     4.241    0.27E-04    0.99E-05    0.15E-06
   2      9    10.960     3.566    0.37E-04    0.13E-04    0.55E-07
   2      9    10.960    20.429    0.20E-03    0.15E-04    0.28E-06
   0     10    10.960    19.799    0.13E-04    0.31E-05    0.11E-07
   0     10    10.960    52.283    0.57E-04    0.26E-04    0.65E-07
 PAW_PBE Ni_pv 06Sep2000                :
 energy of atom  1       EATOM=-3500.3496
 kinetic energy error for atom=    0.0894 (will be added to EATOM!!)
 
 
 POSCAR: Supercell by Yi Wang                    
  positions in direct lattice
  No initial velocities read in
 exchange correlation table for  LEXCH =        8
   RHO(1)=    0.500       N(1)  =     2000
   RHO(2)=  100.500       N(2)  =     4000
 


--------------------------------------------------------------------------------------------------------


 ion  position               nearest neighbor table
   1  0.000  0.000  0.000-   2 2.49   4 2.49   5 2.49   8 2.49  13 2.49  14 2.49  17 2.49  20 2.49
                            29 2.49  49 2.49  50 2.49  53 2.49
   2  0.000  0.000  0.250-   1 2.49   3 2.49   5 2.49   6 2.49  14 2.49  15 2.49  17 2.49  18 2.49
                            30 2.49  50 2.49  51 2.49  54 2.49
   3  0.000  0.000  0.500-   2 2.49   4 2.49   6 2.49   7 2.49  15 2.49  16 2.49  18 2.49  19 2.49
                            31 2.49  51 2.49  52 2.49  55 2.49
   4  0.000  0.000  0.750-   1 2.49   3 2.49   7 2.49   8 2.49  13 2.49  16 2.49  19 2.49  20 2.49
                            32 2.49  49 2.49  52 2.49  56 2.49
   5  0.000  0.250  0.000-   1 2.49   2 2.49   6 2.49   8 2.49   9 2.49  12 2.49  17 2.49  21 2.49
                            24 2.49  53 2.49  54 2.49  57 2.49
   6  0.000  0.250  0.250-   2 2.49   3 2.49   5 2.49   7 2.49   9 2.49  10 2.49  18 2.49  21 2.49
                            22 2.49  54 2.49  55 2.49  58 2.49
   7  0.000  0.250  0.500-   3 2.49   4 2.49   6 2.49   8 2.49  10 2.49  11 2.49  19 2.49  22 2.49
                            23 2.49  55 2.49  56 2.49  59 2.49
   8  0.000  0.250  0.750-   1 2.49   4 2.49   5 2.49   7 2.49  11 2.49  12 2.49  20 2.49  23 2.49
                            24 2.49  53 2.49  56 2.49  60 2.49
   9  0.000  0.500  0.000-   5 2.49   6 2.49  10 2.49  12 2.49  13 2.49  16 2.49  21 2.49  25 2.49
                            28 2.49  57 2.49  58 2.49  61 2.49
  10  0.000  0.500  0.250-   6 2.49   7 2.49   9 2.49  11 2.49  13 2.49  14 2.49  22 2.49  25 2.49
                            26 2.49  58 2.49  59 2.49  62 2.49
  11  0.000  0.500  0.500-   7 2.49   8 2.49  10 2.49  12 2.49  14 2.49  15 2.49  23 2.49  26 2.49
                            27 2.49  59 2.49  60 2.49  63 2.49
  12  0.000  0.500  0.750-   5 2.49   8 2.49   9 2.49  11 2.49  15 2.49  16 2.49  24 2.49  27 2.49
                            28 2.49  57 2.49  60 2.49  64 2.49
  13  0.000  0.750  0.000-   1 2.49   4 2.49   9 2.49  10 2.49  14 2.49  16 2.49  25 2.49  29 2.49
                            32 2.49  49 2.49  61 2.49  62 2.49
  14  0.000  0.750  0.250-   1 2.49   2 2.49  10 2.49  11 2.49  13 2.49  15 2.49  26 2.49  29 2.49
                            30 2.49  50 2.49  62 2.49  63 2.49
  15  0.000  0.750  0.500-   2 2.49   3 2.49  11 2.49  12 2.49  14 2.49  16 2.49  27 2.49  30 2.49
                            31 2.49  51 2.49  63 2.49  64 2.49
  16  0.000  0.750  0.750-   3 2.49   4 2.49   9 2.49  12 2.49  13 2.49  15 2.49  28 2.49  31 2.49
                            32 2.49  52 2.49  61 2.49  64 2.49
  17  0.250  0.000  0.000-   1 2.49   2 2.49   5 2.49  18 2.49  20 2.49  21 2.49  24 2.49  29 2.49
                            30 2.49  33 2.49  36 2.49  45 2.49
  18  0.250  0.000  0.250-   2 2.49   3 2.49   6 2.49  17 2.49  19 2.49  21 2.49  22 2.49  30 2.49
                            31 2.49  33 2.49  34 2.49  46 2.49
  19  0.250  0.000  0.500-   3 2.49   4 2.49   7 2.49  18 2.49  20 2.49  22 2.49  23 2.49  31 2.49
                            32 2.49  34 2.49  35 2.49  47 2.49
  20  0.250  0.000  0.750-   1 2.49   4 2.49   8 2.49  17 2.49  19 2.49  23 2.49  24 2.49  29 2.49
                            32 2.49  35 2.49  36 2.49  48 2.49
  21  0.250  0.250  0.000-   5 2.49   6 2.49   9 2.49  17 2.49  18 2.49  22 2.49  24 2.49  25 2.49
                            28 2.49  33 2.49  37 2.49  40 2.49
  22  0.250  0.250  0.250-   6 2.49   7 2.49  10 2.49  18 2.49  19 2.49  21 2.49  23 2.49  25 2.49
                            26 2.49  34 2.49  37 2.49  38 2.49
  23  0.250  0.250  0.500-   7 2.49   8 2.49  11 2.49  19 2.49  20 2.49  22 2.49  24 2.49  26 2.49
                            27 2.49  35 2.49  38 2.49  39 2.49
  24  0.250  0.250  0.750-   5 2.49   8 2.49  12 2.49  17 2.49  20 2.49  21 2.49  23 2.49  27 2.49
                            28 2.49  36 2.49  39 2.49  40 2.49
  25  0.250  0.500  0.000-   9 2.49  10 2.49  13 2.49  21 2.49  22 2.49  26 2.49  28 2.49  29 2.49
                            32 2.49  37 2.49  41 2.49  44 2.49
  26  0.250  0.500  0.250-  10 2.49  11 2.49  14 2.49  22 2.49  23 2.49  25 2.49  27 2.49  29 2.49
                            30 2.49  38 2.49  41 2.49  42 2.49
  27  0.250  0.500  0.500-  11 2.49  12 2.49  15 2.49  23 2.49  24 2.49  26 2.49  28 2.49  30 2.49
                            31 2.49  39 2.49  42 2.49  43 2.49
  28  0.250  0.500  0.750-   9 2.49  12 2.49  16 2.49  21 2.49  24 2.49  25 2.49  27 2.49  31 2.49
                            32 2.49  40 2.49  43 2.49  44 2.49
  29  0.250  0.750  0.000-   1 2.49  13 2.49  14 2.49  17 2.49  20 2.49  25 2.49  26 2.49  30 2.49
                            32 2.49  41 2.49  45 2.49  48 2.49
  30  0.250  0.750  0.250-   2 2.49  14 2.49  15 2.49  17 2.49  18 2.49  26 2.49  27 2.49  29 2.49
                            31 2.49  42 2.49  45 2.49  46 2.49
  31  0.250  0.750  0.500-   3 2.49  15 2.49  16 2.49  18 2.49  19 2.49  27 2.49  28 2.49  30 2.49
                            32 2.49  43 2.49  46 2.49  47 2.49
  32  0.250  0.750  0.750-   4 2.49  13 2.49  16 2.49  19 2.49  20 2.49  25 2.49  28 2.49  29 2.49
                            31 2.49  44 2.49  47 2.49  48 2.49
  33  0.500  0.000  0.000-  17 2.49  18 2.49  21 2.49  34 2.49  36 2.49  37 2.49  40 2.49  45 2.49
                            46 2.49  49 2.49  52 2.49  61 2.49
  34  0.500  0.000  0.250-  18 2.49  19 2.49  22 2.49  33 2.49  35 2.49  37 2.49  38 2.49  46 2.49
                            47 2.49  49 2.49  50 2.49  62 2.49
  35  0.500  0.000  0.500-  19 2.49  20 2.49  23 2.49  34 2.49  36 2.49  38 2.49  39 2.49  47 2.49
                            48 2.49  50 2.49  51 2.49  63 2.49
  36  0.500  0.000  0.750-  17 2.49  20 2.49  24 2.49  33 2.49  35 2.49  39 2.49  40 2.49  45 2.49
                            48 2.49  51 2.49  52 2.49  64 2.49
  37  0.500  0.250  0.000-  21 2.49  22 2.49  25 2.49  33 2.49  34 2.49  38 2.49  40 2.49  41 2.49
                            44 2.49  49 2.49  53 2.49  56 2.49
  38  0.500  0.250  0.250-  22 2.49  23 2.49  26 2.49  34 2.49  35 2.49  37 2.49  39 2.49  41 2.49
                            42 2.49  50 2.49  53 2.49  54 2.49
  39  0.500  0.250  0.500-  23 2.49  24 2.49  27 2.49  35 2.49  36 2.49  38 2.49  40 2.49  42 2.49
                            43 2.49  51 2.49  54 2.49  55 2.49
  40  0.500  0.250  0.750-  21 2.49  24 2.49  28 2.49  33 2.49  36 2.49  37 2.49  39 2.49  43 2.49
                            44 2.49  52 2.49  55 2.49  56 2.49
  41  0.500  0.500  0.000-  25 2.49  26 2.49  29 2.49  37 2.49  38 2.49  42 2.49  44 2.49  45 2.49
                            48 2.49  53 2.49  57 2.49  60 2.49
  42  0.500  0.500  0.250-  26 2.49  27 2.49  30 2.49  38 2.49  39 2.49  41 2.49  43 2.49  45 2.49
                            46 2.49  54 2.49  57 2.49  58 2.49
  43  0.500  0.500  0.500-  27 2.49  28 2.49  31 2.49  39 2.49  40 2.49  42 2.49  44 2.49  46 2.49
                            47 2.49  55 2.49  58 2.49  59 2.49
  44  0.500  0.500  0.750-  25 2.49  28 2.49  32 2.49  37 2.49  40 2.49  41 2.49  43 2.49  47 2.49
                            48 2.49  56 2.49  59 2.49  60 2.49
  45  0.500  0.750  0.000-  17 2.49  29 2.49  30 2.49  33 2.49  36 2.49  41 2.49  42 2.49  46 2.49
                            48 2.49  57 2.49  61 2.49  64 2.49
  46  0.500  0.750  0.250-  18 2.49  30 2.49  31 2.49  33 2.49  34 2.49  42 2.49  43 2.49  45 2.49
                            47 2.49  58 2.49  61 2.49  62 2.49
  47  0.500  0.750  0.500-  19 2.49  31 2.49  32 2.49  34 2.49  35 2.49  43 2.49  44 2.49  46 2.49
                            48 2.49  59 2.49  62 2.49  63 2.49
  48  0.500  0.750  0.750-  20 2.49  29 2.49  32 2.49  35 2.49  36 2.49  41 2.49  44 2.49  45 2.49
                            47 2.49  60 2.49  63 2.49  64 2.49
  49  0.750  0.000  0.000-   1 2.49   4 2.49  13 2.49  33 2.49  34 2.49  37 2.49  50 2.49  52 2.49
                            53 2.49  56 2.49  61 2.49  62 2.49
  50  0.750  0.000  0.250-   1 2.49   2 2.49  14 2.49  34 2.49  35 2.49  38 2.49  49 2.49  51 2.49
                            53 2.49  54 2.49  62 2.49  63 2.49
  51  0.750  0.000  0.500-   2 2.49   3 2.49  15 2.49  35 2.49  36 2.49  39 2.49  50 2.49  52 2.49
                            54 2.49  55 2.49  63 2.49  64 2.49
  52  0.750  0.000  0.750-   3 2.49   4 2.49  16 2.49  33 2.49  36 2.49  40 2.49  49 2.49  51 2.49
                            55 2.49  56 2.49  61 2.49  64 2.49
  53  0.750  0.250  0.000-   1 2.49   5 2.49   8 2.49  37 2.49  38 2.49  41 2.49  49 2.49  50 2.49
                            54 2.49  56 2.49  57 2.49  60 2.49
  54  0.750  0.250  0.250-   2 2.49   5 2.49   6 2.49  38 2.49  39 2.49  42 2.49  50 2.49  51 2.49
                            53 2.49  55 2.49  57 2.49  58 2.49
  55  0.750  0.250  0.500-   3 2.49   6 2.49   7 2.49  39 2.49  40 2.49  43 2.49  51 2.49  52 2.49
                            54 2.49  56 2.49  58 2.49  59 2.49
  56  0.750  0.250  0.750-   4 2.49   7 2.49   8 2.49  37 2.49  40 2.49  44 2.49  49 2.49  52 2.49
                            53 2.49  55 2.49  59 2.49  60 2.49
  57  0.750  0.500  0.000-   5 2.49   9 2.49  12 2.49  41 2.49  42 2.49  45 2.49  53 2.49  54 2.49
                            58 2.49  60 2.49  61 2.49  64 2.49
  58  0.750  0.500  0.250-   6 2.49   9 2.49  10 2.49  42 2.49  43 2.49  46 2.49  54 2.49  55 2.49
                            57 2.49  59 2.49  61 2.49  62 2.49
  59  0.750  0.500  0.500-   7 2.49  10 2.49  11 2.49  43 2.49  44 2.49  47 2.49  55 2.49  56 2.49
                            58 2.49  60 2.49  62 2.49  63 2.49
  60  0.750  0.500  0.750-   8 2.49  11 2.49  12 2.49  41 2.49  44 2.49  48 2.49  53 2.49  56 2.49
                            57 2.49  59 2.49  63 2.49  64 2.49
  61  0.750  0.750  0.000-   9 2.49  13 2.49  16 2.49  33 2.49  45 2.49  46 2.49  49 2.49  52 2.49
                            57 2.49  58 2.49  62 2.49  64 2.49
  62  0.750  0.750  0.250-  10 2.49  13 2.49  14 2.49  34 2.49  46 2.49  47 2.49  49 2.49  50 2.49
                            58 2.49  59 2.49  61 2.49  63 2.49
  63  0.750  0.750  0.500-  11 2.49  14 2.49  15 2.49  35 2.49  47 2.49  48 2.49  50 2.49  51 2.49
                            59 2.49  60 2.49  62 2.49  64 2.49
  64  0.750  0.750  0.750-  12 2.49  15 2.49  16 2.49  36 2.49  45 2.49  48 2.49  51 2.49  52 2.49
                            57 2.49  60 2.49  61 2.49  63 2.49
 
  LATTYP: Found a face centered cubic cell.
 ALAT       =    14.1000000000
  
  Lattice vectors:
  
 A1 = (   0.0000000000,   7.0500000000,   7.0500000000)
 A2 = (   7.0500000000,   0.0000000000,   7.0500000000)
 A3 = (   7.0500000000,   7.0500000000,   0.0000000000)


Analysis of symmetry for initial positions (statically):
=====================================================================
 Subroutine PRICEL returns following result:
 
  LATTYP: Found a face centered cubic cell.
 ALAT       =     3.5250000000
  
  Lattice vectors:
  
 A1 = (   0.0000000000,   1.7625000000,   1.7625000000)
 A2 = (   1.7625000000,   0.0000000000,   1.7625000000)
 A3 = (   1.7625000000,   1.7625000000,   0.0000000000)
 
  64 primitive cells build up your supercell.
 

 Routine SETGRP: Setting up the symmetry group for a 
 face centered cubic supercell.


 Subroutine GETGRP returns: Found 48 space group operations
 (whereof 48 operations were pure point group operations)
 out of a pool of 48 trial point group operations.


The static configuration has the point symmetry O_h .


Analysis of symmetry for dynamics (positions and initial velocities):
=====================================================================
 Subroutine PRICEL returns following result:
 
  LATTYP: Found a face centered cubic cell.
 ALAT       =     3.5250000000
  
  Lattice vectors:
  
 A1 = (   0.0000000000,   1.7625000000,   1.7625000000)
 A2 = (   1.7625000000,   0.0000000000,   1.7625000000)
 A3 = (   1.7625000000,   1.7625000000,   0.0000000000)
 
  64 primitive cells build up your supercell.
 

 Routine SETGRP: Setting up the symmetry group for a 
 face centered cubic supercell.


 Subroutine GETGRP returns: Found 48 space group operations
 (whereof 48 operations were pure point group operations)
 out of a pool of 48 trial point group operations.


The dynamic configuration has the point symmetry O_h .


Analysis of structural, dynamic, and magnetic symmetry:
=====================================================================
 Subroutine PRICEL returns following result:
 
  LATTYP: Found a face centered cubic cell.
 ALAT       =     3.5250000000
  
  Lattice vectors:
  
 A1 = (   0.0000000000,   1.7625000000,   1.7625000000)
 A2 = (   1.7625000000,   0.0000000000,   1.7625000000)
 A3 = (   1.7625000000,   1.7625000000,   0.0000000000)
 
  64 primitive cells build up your supercell.
 

 Routine SETGRP: Setting up the symmetry group for a 
 face centered cubic supercell.


 Subroutine GETGRP returns: Found 48 space group operations
 (whereof 48 operations were pure point group operations)
 out of a pool of 48 trial point group operations.


The magnetic configuration has the point symmetry O_h .


 Subroutine INISYM returns: Found 48 space group operations
 (whereof 48 operations are pure point group operations),
 and found    64 'primitive' translations

 
 
 KPOINTS: Zr 15x15x15                             

Automatic generation of k-mesh.
Space group operators:
 irot       det(A)        alpha          n_x          n_y          n_z        tau_x        tau_y        tau_z
    1     1.000000     0.000000     1.000000     0.000000     0.000000     0.000000     0.000000     0.000000
    2    -1.000000     0.000000     1.000000     0.000000     0.000000     0.000000     0.000000     0.000000
    3     1.000000   120.000000    -0.577350    -0.577350    -0.577350     0.000000     0.000000     0.000000
    4    -1.000000   120.000000    -0.577350    -0.577350    -0.577350     0.000000     0.000000     0.000000
    5     1.000000   120.000000     0.577350     0.577350     0.577350     0.000000     0.000000     0.000000
    6    -1.000000   120.000000     0.577350     0.577350     0.577350     0.000000     0.000000     0.000000
    7     1.000000    90.000000     0.000000     0.000000    -1.000000     0.000000     0.000000     0.000000
    8    -1.000000    90.000000     0.000000     0.000000    -1.000000     0.000000     0.000000     0.000000
    9     1.000000   180.000000     0.000000     0.707107     0.707107     0.000000     0.000000     0.000000
   10    -1.000000   180.000000     0.000000     0.707107     0.707107     0.000000     0.000000     0.000000
   11     1.000000    90.000000     0.000000     1.000000     0.000000     0.000000     0.000000     0.000000
   12    -1.000000    90.000000     0.000000     1.000000     0.000000     0.000000     0.000000     0.000000
   13     1.000000   180.000000     0.000000     0.000000     1.000000     0.000000     0.000000     0.000000
   14    -1.000000   180.000000     0.000000     0.000000     1.000000     0.000000     0.000000     0.000000
   15     1.000000   120.000000    -0.577350     0.577350     0.577350     0.000000     0.000000     0.000000
   16    -1.000000   120.000000    -0.577350     0.577350     0.577350     0.000000     0.000000     0.000000
   17     1.000000   120.000000    -0.577350     0.577350    -0.577350     0.000000     0.000000     0.000000
   18    -1.000000   120.000000    -0.577350     0.577350    -0.577350     0.000000     0.000000     0.000000
   19     1.000000    90.000000     0.000000     0.000000     1.000000     0.000000     0.000000     0.000000
   20    -1.000000    90.000000     0.000000     0.000000     1.000000     0.000000     0.000000     0.000000
   21     1.000000    90.000000    -1.000000     0.000000     0.000000     0.000000     0.000000     0.000000
   22    -1.000000    90.000000    -1.000000     0.000000     0.000000     0.000000     0.000000     0.000000
   23     1.000000   180.000000     0.707107     0.000000     0.707107     0.000000     0.000000     0.000000
   24    -1.000000   180.000000     0.707107     0.000000     0.707107     0.000000     0.000000     0.000000
   25     1.000000   120.000000     0.577350    -0.577350     0.577350     0.000000     0.000000     0.000000
   26    -1.000000   120.000000     0.577350    -0.577350     0.577350     0.000000     0.000000     0.000000
   27     1.000000   120.000000    -0.577350    -0.577350     0.577350     0.000000     0.000000     0.000000
   28    -1.000000   120.000000    -0.577350    -0.577350     0.577350     0.000000     0.000000     0.000000
   29     1.000000   180.000000     1.000000     0.000000     0.000000     0.000000     0.000000     0.000000
   30    -1.000000   180.000000     1.000000     0.000000     0.000000     0.000000     0.000000     0.000000
   31     1.000000    90.000000     0.000000    -1.000000     0.000000     0.000000     0.000000     0.000000
   32    -1.000000    90.000000     0.000000    -1.000000     0.000000     0.000000     0.000000     0.000000
   33     1.000000   180.000000     0.707107     0.707107     0.000000     0.000000     0.000000     0.000000
   34    -1.000000   180.000000     0.707107     0.707107     0.000000     0.000000     0.000000     0.000000
   35     1.000000    90.000000     1.000000     0.000000     0.000000     0.000000     0.000000     0.000000
   36    -1.000000    90.000000     1.000000     0.000000     0.000000     0.000000     0.000000     0.000000
   37     1.000000   120.000000     0.577350    -0.577350    -0.577350     0.000000     0.000000     0.000000
   38    -1.000000   120.000000     0.577350    -0.577350    -0.577350     0.000000     0.000000     0.000000
   39     1.000000   180.000000     0.000000     1.000000     0.000000     0.000000     0.000000     0.000000
   40    -1.000000   180.000000     0.000000     1.000000     0.000000     0.000000     0.000000     0.000000
   41     1.000000   120.000000     0.577350     0.577350    -0.577350     0.000000     0.000000     0.000000
   42    -1.000000   120.000000     0.577350     0.577350    -0.577350     0.000000     0.000000     0.000000
   43     1.000000   180.000000     0.000000    -0.707107     0.707107     0.000000     0.000000     0.000000
   44    -1.000000   180.000000     0.000000    -0.707107     0.707107     0.000000     0.000000     0.000000
   45     1.000000   180.000000     0.707107    -0.707107     0.000000     0.000000     0.000000     0.000000
   46    -1.000000   180.000000     0.707107    -0.707107     0.000000     0.000000     0.000000     0.000000
   47     1.000000   180.000000     0.707107     0.000000    -0.707107     0.000000     0.000000     0.000000
   48    -1.000000   180.000000     0.707107     0.000000    -0.707107     0.000000     0.000000     0.000000
 
 Subroutine IBZKPT returns following result:
 ===========================================
 
 Found      4 irreducible k-points:
 
 Following reciprocal coordinates:
            Coordinates               Weight
  0.000000  0.000000  0.000000      1.000000
  0.333333  0.000000  0.000000      8.000000
  0.333333  0.333333  0.000000      6.000000
 -0.333333  0.333333  0.000000     12.000000
 
 Following cartesian coordinates:
            Coordinates               Weight
  0.000000  0.000000  0.000000      1.000000
 -0.023641  0.023641  0.023641      8.000000
  0.000000  0.000000  0.047281      6.000000
  0.047281 -0.047281  0.000000     12.000000
 
 
 Subroutine IBZKPT_HF returns following result:
 ==============================================
 
 Found     27 k-points in 1st BZ
 the following     27 k-points will be used (e.g. in the exchange kernel)
 Following reciprocal coordinates:   # in IRBZ
  0.000000  0.000000  0.000000    0.03703704   1 t-inv F
  0.333333  0.000000  0.000000    0.03703704   2 t-inv F
  0.333333  0.333333  0.000000    0.03703704   3 t-inv F
 -0.333333  0.333333  0.000000    0.03703704   4 t-inv F
 -0.333333  0.000000  0.000000    0.03703704   2 t-inv F
  0.000000  0.333333  0.000000    0.03703704   2 t-inv F
  0.000000 -0.333333  0.000000    0.03703704   2 t-inv F
  0.000000  0.000000  0.333333    0.03703704   2 t-inv F
  0.000000  0.000000 -0.333333    0.03703704   2 t-inv F
  0.333333  0.333333  0.333333    0.03703704   2 t-inv F
 -0.333333 -0.333333 -0.333333    0.03703704   2 t-inv F
 -0.333333 -0.333333  0.000000    0.03703704   3 t-inv F
  0.000000  0.333333  0.333333    0.03703704   3 t-inv F
  0.000000 -0.333333 -0.333333    0.03703704   3 t-inv F
  0.333333  0.000000  0.333333    0.03703704   3 t-inv F
 -0.333333  0.000000 -0.333333    0.03703704   3 t-inv F
  0.333333 -0.333333  0.000000    0.03703704   4 t-inv F
  0.000000 -0.333333  0.333333    0.03703704   4 t-inv F
  0.000000  0.333333 -0.333333    0.03703704   4 t-inv F
  0.333333  0.000000 -0.333333    0.03703704   4 t-inv F
 -0.333333  0.000000  0.333333    0.03703704   4 t-inv F
  0.333333  0.333333  0.666667    0.03703704   4 t-inv F
 -0.333333 -0.333333 -0.666667    0.03703704   4 t-inv F
 -0.333333 -0.666667 -0.333333    0.03703704   4 t-inv F
  0.333333  0.666667  0.333333    0.03703704   4 t-inv F
 -0.666667 -0.333333 -0.333333    0.03703704   4 t-inv F
  0.666667  0.333333  0.333333    0.03703704   4 t-inv F


--------------------------------------------------------------------------------------------------------




 Dimension of arrays:
   k-points           NKPTS =      4   k-points in BZ     NKDIM =      4   number of bands    NBANDS=    648
   number of dos      NEDOS =    301   number of ions     NIONS =     64
   non local maximal  LDIM  =      6   non local SUM 2l+1 LMDIM =     18
   total plane-waves  NPLWV = 343000
   max r-space proj   IRMAX =   3539   max aug-charges    IRDMAX=   7004
   dimension x,y,z NGX =    70 NGY =   70 NGZ =   70
   dimension x,y,z NGXF=   120 NGYF=  120 NGZF=  120
   support grid    NGXF=   120 NGYF=  120 NGZF=  120
   ions per type =              64
 NGX,Y,Z   is equivalent  to a cutoff of  11.67, 11.67, 11.67 a.u.
 NGXF,Y,Z  is equivalent  to a cutoff of  20.01, 20.01, 20.01 a.u.


 I would recommend the setting:
   dimension x,y,z NGX =    70 NGY =   70 NGZ =   70
 SYSTEM =  phonon of Zr bcc - omiga                
 POSCAR =  Supercell by Yi Wang                    

 Startparameter for this run:
   NWRITE =      0    write-flag & timer
   PREC   = h         normal or accurate (medium, high low for compatibility)
   ISTART =      0    job   : 0-new  1-cont  2-samecut
   ICHARG =      2    charge: 1-file 2-atom 10-const
   ISPIN  =      2    spin polarized calculation?
   LNONCOLLINEAR =      F non collinear calculations
   LSORBIT =      F    spin-orbit coupling
   INIWAV =      1    electr: 0-lowe 1-rand  2-diag
   LASPH  =      F    aspherical Exc in radial PAW
   METAGGA=      F    non-selfconsistent MetaGGA calc.

 Electronic Relaxation 1
   ENCUT  =  459.9 eV  33.80 Ry    5.81 a.u.  17.43 17.43 17.43*2*pi/ulx,y,z
   ENINI  =  459.9     initial cutoff
   ENAUG  =  703.4 eV  augmentation charge cutoff
   NELM   =     60;   NELMIN=  2; NELMDL=  0     # of ELM steps 
   EDIFF  = 0.1E-05   stopping-criterion for ELM
   LREAL  =      T    real-space projection
   NLSPLINE    = F    spline interpolate recip. space projectors
   LCOMPAT=      F    compatible to vasp.4.4
   GGA_COMPAT  = T    GGA compatible to vasp.4.4-vasp.4.6
   LMAXPAW     = -100 max onsite density
   LMAXMIX     =    2 max onsite mixed and CHGCAR
   VOSKOWN=      0    Vosko Wilk Nusair interpolation
   ROPT   =   -0.00040
 Ionic relaxation
   EDIFFG = 0.1E-04   stopping-criterion for IOM
   NSW    =    805    number of steps for IOM
   NBLOCK =      1;   KBLOCK =      1    inner block; outer block 
   IBRION =      6    ionic relax: 0-MD 1-quasi-New 2-CG
   NFREE  =      2    steps in history (QN), initial steepest desc. (CG)
   ISIF   =      2    stress and relaxation
   IWAVPR =     11    prediction:  0-non 1-charg 2-wave 3-comb
   ISYM   =      2    0-nonsym 1-usesym 2-fastsym
   LCORR  =      T    Harris-Foulkes like correction to forces

   POTIM  = 0.5000    time-step for ionic-motion
   TEIN   =    0.0    initial temperature
   TEBEG  =    0.0;   TEEND  =   0.0 temperature during run
   SMASS  =  -3.00    Nose mass-parameter (am)
   estimated Nose-frequenzy (Omega)   =  0.10E-29 period in steps =****** mass=  -0.227E-26a.u.
   SCALEE = 1.0000    scale energy and forces
   NPACO  =    256;   APACO  = 16.0  distance and # of slots for P.C.
   PSTRESS=    0.0 pullay stress

  Mass of Ions in am
   POMASS =  58.69
  Ionic Valenz
   ZVAL   =  16.00
  Atomic Wigner-Seitz radii
   RWIGS  =  -1.00
  virtual crystal weights 
   VCA    =   1.00
   NELECT =    1024.0000    total number of electrons
   NUPDOWN=      -1.0000    fix difference up-down

 DOS related values:
   EMIN   =  10.00;   EMAX   =-10.00  energy-range for DOS
   EFERMI =   0.00
   ISMEAR =     1;   SIGMA  =   0.20  broadening in eV -4-tet -1-fermi 0-gaus

 Electronic relaxation 2 (details)
   IALGO  =     38    algorithm
   LDIAG  =      T    sub-space diagonalisation (order eigenvalues)
   LSUBROT=      F    optimize rotation matrix (better conditioning)
   TURBO    =      0    0=normal 1=particle mesh
   IRESTART =      0    0=no restart 2=restart with 2 vectors
   NREBOOT  =      0    no. of reboots
   NMIN     =      0    reboot dimension
   EREF     =   0.00    reference energy to select bands
   IMIX   =      4    mixing-type and parameters
     AMIX     =   0.40;   BMIX     =  1.00
     AMIX_MAG =   1.60;   BMIX_MAG =  1.00
     AMIN     =   0.10
     WC   =   100.;   INIMIX=   1;  MIXPRE=   1;  MAXMIX= -45

 Intra band minimization:
   WEIMIN = 0.0010     energy-eigenvalue tresh-hold
   EBREAK =  0.39E-09  absolut break condition
   DEPER  =   0.30     relativ break condition  

   TIME   =   0.40     timestep for ELM

  volume/ion in A,a.u.               =      10.95        73.89
  Fermi-wavevector in a.u.,A,eV,Ry     =   1.857701  3.510545 46.954402  3.451051
  Thomas-Fermi vector in A             =   2.906309
 
 Write flags
   LWAVE  =      T    write WAVECAR
   LCHARG =      T    write CHGCAR
   LVTOT  =      F    write LOCPOT, total local potential
   LVHAR  =      F    write LOCPOT, Hartree potential only
   LELF   =      F    write electronic localiz. function (ELF)
   LORBIT =      0    0 simple, 1 ext, 2 COOP (PROOUT)


 Dipole corrections
   LMONO  =      F    monopole corrections only (constant potential shift)
   LDIPOL =      F    correct potential (dipole corrections)
   IDIPOL =      0    1-x, 2-y, 3-z, 4-all directions 
   EPSILON=  1.0000000 bulk dielectric constant

 Exchange correlation treatment:
   GGA     =    --    GGA type
   LEXCH   =     8    internal setting for exchange type
   VOSKOWN=      0    Vosko Wilk Nusair interpolation
   LHFCALC =     F    Hartree Fock is set to
   LHFONE  =     F    Hartree Fock one center treatment
   AEXX    =    0.0000 exact exchange contribution

 Linear response parameters
   LEPSILON=     F    determine dielectric tensor
   LRPA    =     F    only Hartree local field effects (RPA)
   LNABLA  =     F    use nabla operator in PAW spheres
   LVEL    =     F    velocity operator in full k-point grid
   LINTERFAST=   F  fast interpolation
   KINTER  =     0    interpolate to denser k-point grid
   CSHIFT  =0.1000    complex shift for real part using Kramers Kronig
   OMEGAMAX=  -1.0    maximum frequency
   DEG_THRESHOLD= 0.2000000E-02 threshold for treating states as degnerate
   RTIME   =    0.100 relaxation time in fs

 Orbital magnetization related:
   ORBITALMAG=     F  switch on orbital magnetization
   LCHIMAG   =     F  perturbation theory with respect to B field
   DQ        =  0.001000  dq finite difference perturbation B field



--------------------------------------------------------------------------------------------------------


 finite differences with symmetry
 charge density and potential will be updated during run
 spin polarized calculation
 Variant of blocked Davidson
 Davidson routine will perform the subspace rotation
 perform sub-space diagonalisation
    after iterative eigenvector-optimisation
 modified Broyden-mixing scheme, WC =      100.0
 initial mixing is a Kerker type mixing with AMIX =  0.4000 and BMIX =      1.0000
 Hartree-type preconditioning will be used
 using additional bands          136
 real space projection scheme for non local part
 use partial core corrections
 calculate Harris-corrections to forces 
   (improved forces if not selfconsistent)
 use gradient corrections 
 use of overlap-Matrix (Vanderbilt PP)
 Methfessel and Paxton  Order N= 1 SIGMA  =   0.20


--------------------------------------------------------------------------------------------------------


  energy-cutoff  :      459.93
  volume of cell :      700.81
      direct lattice vectors                 reciprocal lattice vectors
     0.000000000  7.050000000  7.050000000    -0.070921986  0.070921986  0.070921986
     7.050000000  0.000000000  7.050000000     0.070921986 -0.070921986  0.070921986
     7.050000000  7.050000000  0.000000000     0.070921986  0.070921986 -0.070921986

  length of vectors
     9.970205615  9.970205615  9.970205615     0.122840483  0.122840483  0.122840483


 
 k-points in units of 2pi/SCALE and weight: Zr 15x15x15                             
   0.00000000  0.00000000  0.00000000       0.037
  -0.02364066  0.02364066  0.02364066       0.296
   0.00000000  0.00000000  0.04728132       0.222
   0.04728132 -0.04728132  0.00000000       0.444
 
 k-points in reciprocal lattice and weights: Zr 15x15x15                             
   0.00000000  0.00000000  0.00000000       0.037
   0.33333333  0.00000000  0.00000000       0.296
   0.33333333  0.33333333  0.00000000       0.222
  -0.33333333  0.33333333  0.00000000       0.444
 
 position of ions in fractional coordinates (direct lattice) 
   0.00000000  0.00000000  0.00000000
   0.00000000  0.00000000  0.25000000
   0.00000000  0.00000000  0.50000000
   0.00000000  0.00000000  0.75000000
   0.00000000  0.25000000  0.00000000
   0.00000000  0.25000000  0.25000000
   0.00000000  0.25000000  0.50000000
   0.00000000  0.25000000  0.75000000
   0.00000000  0.50000000  0.00000000
   0.00000000  0.50000000  0.25000000
   0.00000000  0.50000000  0.50000000
   0.00000000  0.50000000  0.75000000
   0.00000000  0.75000000  0.00000000
   0.00000000  0.75000000  0.25000000
   0.00000000  0.75000000  0.50000000
   0.00000000  0.75000000  0.75000000
   0.25000000  0.00000000  0.00000000
   0.25000000  0.00000000  0.25000000
   0.25000000  0.00000000  0.50000000
   0.25000000  0.00000000  0.75000000
   0.25000000  0.25000000  0.00000000
   0.25000000  0.25000000  0.25000000
   0.25000000  0.25000000  0.50000000
   0.25000000  0.25000000  0.75000000
   0.25000000  0.50000000  0.00000000
   0.25000000  0.50000000  0.25000000
   0.25000000  0.50000000  0.50000000
   0.25000000  0.50000000  0.75000000
   0.25000000  0.75000000  0.00000000
   0.25000000  0.75000000  0.25000000
   0.25000000  0.75000000  0.50000000
   0.25000000  0.75000000  0.75000000
   0.50000000  0.00000000  0.00000000
   0.50000000  0.00000000  0.25000000
   0.50000000  0.00000000  0.50000000
   0.50000000  0.00000000  0.75000000
   0.50000000  0.25000000  0.00000000
   0.50000000  0.25000000  0.25000000
   0.50000000  0.25000000  0.50000000
   0.50000000  0.25000000  0.75000000
   0.50000000  0.50000000  0.00000000
   0.50000000  0.50000000  0.25000000
   0.50000000  0.50000000  0.50000000
   0.50000000  0.50000000  0.75000000
   0.50000000  0.75000000  0.00000000
   0.50000000  0.75000000  0.25000000
   0.50000000  0.75000000  0.50000000
   0.50000000  0.75000000  0.75000000
   0.75000000  0.00000000  0.00000000
   0.75000000  0.00000000  0.25000000
   0.75000000  0.00000000  0.50000000
   0.75000000  0.00000000  0.75000000
   0.75000000  0.25000000  0.00000000
   0.75000000  0.25000000  0.25000000
   0.75000000  0.25000000  0.50000000
   0.75000000  0.25000000  0.75000000
   0.75000000  0.50000000  0.00000000
   0.75000000  0.50000000  0.25000000
   0.75000000  0.50000000  0.50000000
   0.75000000  0.50000000  0.75000000
   0.75000000  0.75000000  0.00000000
   0.75000000  0.75000000  0.25000000
   0.75000000  0.75000000  0.50000000
   0.75000000  0.75000000  0.75000000
 
 position of ions in cartesian coordinates  (Angst):
   0.00000000  0.00000000  0.00000000
   1.76250000  1.76250000  0.00000000
   3.52500000  3.52500000  0.00000000
   5.28750000  5.28750000  0.00000000
   1.76250000  0.00000000  1.76250000
   3.52500000  1.76250000  1.76250000
   5.28750000  3.52500000  1.76250000
   7.05000000  5.28750000  1.76250000
   3.52500000  0.00000000  3.52500000
   5.28750000  1.76250000  3.52500000
   7.05000000  3.52500000  3.52500000
   8.81250000  5.28750000  3.52500000
   5.28750000  0.00000000  5.28750000
   7.05000000  1.76250000  5.28750000
   8.81250000  3.52500000  5.28750000
  10.57500000  5.28750000  5.28750000
   0.00000000  1.76250000  1.76250000
   1.76250000  3.52500000  1.76250000
   3.52500000  5.28750000  1.76250000
   5.28750000  7.05000000  1.76250000
   1.76250000  1.76250000  3.52500000
   3.52500000  3.52500000  3.52500000
   5.28750000  5.28750000  3.52500000
   7.05000000  7.05000000  3.52500000
   3.52500000  1.76250000  5.28750000
   5.28750000  3.52500000  5.28750000
   7.05000000  5.28750000  5.28750000
   8.81250000  7.05000000  5.28750000
   5.28750000  1.76250000  7.05000000
   7.05000000  3.52500000  7.05000000
   8.81250000  5.28750000  7.05000000
  10.57500000  7.05000000  7.05000000
   0.00000000  3.52500000  3.52500000
   1.76250000  5.28750000  3.52500000
   3.52500000  7.05000000  3.52500000
   5.28750000  8.81250000  3.52500000
   1.76250000  3.52500000  5.28750000
   3.52500000  5.28750000  5.28750000
   5.28750000  7.05000000  5.28750000
   7.05000000  8.81250000  5.28750000
   3.52500000  3.52500000  7.05000000
   5.28750000  5.28750000  7.05000000
   7.05000000  7.05000000  7.05000000
   8.81250000  8.81250000  7.05000000
   5.28750000  3.52500000  8.81250000
   7.05000000  5.28750000  8.81250000
   8.81250000  7.05000000  8.81250000
  10.57500000  8.81250000  8.81250000
   0.00000000  5.28750000  5.28750000
   1.76250000  7.05000000  5.28750000
   3.52500000  8.81250000  5.28750000
   5.28750000 10.57500000  5.28750000
   1.76250000  5.28750000  7.05000000
   3.52500000  7.05000000  7.05000000
   5.28750000  8.81250000  7.05000000
   7.05000000 10.57500000  7.05000000
   3.52500000  5.28750000  8.81250000
   5.28750000  7.05000000  8.81250000
   7.05000000  8.81250000  8.81250000
   8.81250000 10.57500000  8.81250000
   5.28750000  5.28750000 10.57500000
   7.05000000  7.05000000 10.57500000
   8.81250000  8.81250000 10.57500000
  10.57500000 10.57500000 10.57500000
 


--------------------------------------------------------------------------------------------------------


 k-point  1 :   0.0000 0.0000 0.0000  plane waves:   15593
 k-point  2 :   0.3333 0.0000 0.0000  plane waves:   15673
 k-point  3 :   0.3333 0.3333 0.0000  plane waves:   15696
 k-point  4 :  -0.3333 0.3333 0.0000  plane waves:   15708

 maximum and minimum number of plane-waves per node :     15708    15593

 maximum number of plane-waves:     15708
 maximum index in each direction: 
   IXMAX=   17   IYMAX=   17   IZMAX=   17
   IXMIN=  -17   IYMIN=  -17   IZMIN=  -17

 NGX is ok and might be reduce to  70
 NGY is ok and might be reduce to  70
 NGZ is ok and might be reduce to  70

 serial   3D FFT for wavefunctions
 parallel 3D FFT for charge:
    minimum data exchange during FFTs selected (reduces bandwidth)


 total amount of memory used by VASP on root node   495413. kBytes
========================================================================

   base      :      30000. kBytes
   nonlr-proj:      38184. kBytes
   fftplans  :      16527. kBytes
   grid      :      59104. kBytes
   one-center:       1990. kBytes
   wavefun   :     349608. kBytes
 
     INWAV:  cpu time    0.0010: real time    0.0000
 Broyden mixing: mesh for mixing (old mesh)
   NGX = 35   NGY = 35   NGZ = 35
  (NGX  =120   NGY  =120   NGZ  =120)
  gives a total of  42875 points

 initial charge density was supplied:
 charge density of overlapping atoms calculated
 number of electron    1024.0000000 magnetization      64.0000000
 keeping initial charge density in first step


--------------------------------------------------------------------------------------------------------


 Maximum index for non-local projection operator         3396
 Maximum index for augmentation-charges         1658 (set IRDMAX)


--------------------------------------------------------------------------------------------------------


 First call to EWALD:  gamma=   0.200
 Maximum number of real-space cells 3x 3x 3
 Maximum number of reciprocal cells 3x 3x 3

 FEWALD executed in parallel
    FEWALD:  cpu time    0.0060: real time    0.0068


----------------------------------------- Iteration    1(   1)  ---------------------------------------


    POTLOK:  cpu time    0.5099: real time    0.5088
    SETDIJ:  cpu time    0.0900: real time    0.0908
     EDDAV:  cpu time  146.1738: real time  146.0541
       DOS:  cpu time    0.0040: real time    0.0043
    --------------------------------------------
      LOOP:  cpu time  146.7797: real time  146.6612

 eigenvalue-minimisations  : 11544
 total energy-change (2. order) : 0.1598606E+05  (-0.5969614E+05)
 number of electron    1024.0000000 magnetization      64.0000000
 augmentation part     1024.0000000 magnetization      64.0000000

 Free energy of the ion-electron system (eV)
  ---------------------------------------------------
  alpha Z        PSCENC =      9846.09864404
  Ewald energy   TEWEN  =   -153431.04596335
  -Hartree energ DENC   =    -61842.66455301
  -exchange      EXHF   =         0.00000000
  -V(xc)+E(xc)   XCENC  =      5718.00510425
  PAW double counting   =    172361.15642774  -181272.45834873
  entropy T*S    EENTRO =         0.01026952
  eigenvalues    EBANDS =       590.30333549
  atomic energy  EATOM  =    224016.65216645
  Solvation  Ediel_sol  =         0.00000000
  ---------------------------------------------------
  free energy    TOTEN  =     15986.05708240 eV

  energy without entropy =    15986.04681288  energy(sigma->0) =    15986.05365922


--------------------------------------------------------------------------------------------------------




----------------------------------------- Iteration    1(   2)  ---------------------------------------


     EDDAV:  cpu time  135.1565: real time  135.0517
       DOS:  cpu time    0.0040: real time    0.0038
    --------------------------------------------
      LOOP:  cpu time  135.1615: real time  135.0561

 eigenvalue-minimisations  : 10368
 total energy-change (2. order) :-0.1483383E+05  (-0.1440351E+05)
 number of electron    1024.0000000 magnetization      64.0000000
 augmentation part     1024.0000000 magnetization      64.0000000

 Free energy of the ion-electron system (eV)
  ---------------------------------------------------
  alpha Z        PSCENC =      9846.09864404
  Ewald energy   TEWEN  =   -153431.04596335
  -Hartree energ DENC   =    -61842.66455301
  -exchange      EXHF   =         0.00000000
  -V(xc)+E(xc)   XCENC  =      5718.00510425
  PAW double counting   =    172361.15642774  -181272.45834873
  entropy T*S    EENTRO =        -0.01004280
  eigenvalues    EBANDS =    -14243.50285179
  atomic energy  EATOM  =    224016.65216645
  Solvation  Ediel_sol  =         0.00000000
  ---------------------------------------------------
  free energy    TOTEN  =      1152.23058280 eV

  energy without entropy =     1152.24062560  energy(sigma->0) =     1152.23393040


--------------------------------------------------------------------------------------------------------




----------------------------------------- Iteration    1(   3)  ---------------------------------------


     EDDAV:  cpu time  136.4573: real time  136.3513
       DOS:  cpu time    0.0040: real time    0.0041
    --------------------------------------------
      LOOP:  cpu time  136.4623: real time  136.3560

 eigenvalue-minimisations  : 10496
 total energy-change (2. order) :-0.1495283E+04  (-0.1249549E+04)
 number of electron    1024.0000000 magnetization      64.0000000
 augmentation part     1024.0000000 magnetization      64.0000000

 Free energy of the ion-electron system (eV)
  ---------------------------------------------------
  alpha Z        PSCENC =      9846.09864404
  Ewald energy   TEWEN  =   -153431.04596335
  -Hartree energ DENC   =    -61842.66455301
  -exchange      EXHF   =         0.00000000
  -V(xc)+E(xc)   XCENC  =      5718.00510425
  PAW double counting   =    172361.15642774  -181272.45834873
  entropy T*S    EENTRO =         0.12318358
  eigenvalues    EBANDS =    -15738.91914951
  atomic energy  EATOM  =    224016.65216645
  Solvation  Ediel_sol  =         0.00000000
  ---------------------------------------------------
  free energy    TOTEN  =      -343.05248854 eV

  energy without entropy =     -343.17567213  energy(sigma->0) =     -343.09354974


--------------------------------------------------------------------------------------------------------




----------------------------------------- Iteration    1(   4)  ---------------------------------------


     EDDAV:  cpu time  142.3234: real time  142.2092
       DOS:  cpu time    0.0040: real time    0.0042
    --------------------------------------------
      LOOP:  cpu time  142.3284: real time  142.2139

 eigenvalue-minimisations  : 11088
 total energy-change (2. order) :-0.8881923E+02  (-0.8612353E+02)
 number of electron    1024.0000000 magnetization      64.0000000
 augmentation part     1024.0000000 magnetization      64.0000000

 Free energy of the ion-electron system (eV)
  ---------------------------------------------------
  alpha Z        PSCENC =      9846.09864404
  Ewald energy   TEWEN  =   -153431.04596335
  -Hartree energ DENC   =    -61842.66455301
  -exchange      EXHF   =         0.00000000
  -V(xc)+E(xc)   XCENC  =      5718.00510425
  PAW double counting   =    172361.15642774  -181272.45834873
  entropy T*S    EENTRO =         0.16392936
  eigenvalues    EBANDS =    -15827.77912635
  atomic energy  EATOM  =    224016.65216645
  Solvation  Ediel_sol  =         0.00000000
  ---------------------------------------------------
  free energy    TOTEN  =      -431.87171960 eV

  energy without entropy =     -432.03564896  energy(sigma->0) =     -431.92636272


--------------------------------------------------------------------------------------------------------




----------------------------------------- Iteration    1(   5)  ---------------------------------------


     EDDAV:  cpu time  142.0774: real time  141.9628
       DOS:  cpu time    0.0040: real time    0.0042
    CHARGE:  cpu time    7.5589: real time    7.5535
    MIXING:  cpu time    0.0110: real time    0.0098
    --------------------------------------------
      LOOP:  cpu time  149.6532: real time  149.5311

 eigenvalue-minimisations  : 11064
 total energy-change (2. order) :-0.1507779E+01  (-0.1505958E+01)
 number of electron    1023.9993092 magnetization      57.8172068
 augmentation part      573.5997942 magnetization      46.3051051

 Broyden mixing:
  rms(total) = 0.67628E+01    rms(broyden)= 0.67608E+01
  rms(prec ) = 0.92120E+01
  weight for this iteration     100.00

 Free energy of the ion-electron system (eV)
  ---------------------------------------------------
  alpha Z        PSCENC =      9846.09864404
  Ewald energy   TEWEN  =   -153431.04596335
  -Hartree energ DENC   =    -61842.66455301
  -exchange      EXHF   =         0.00000000
  -V(xc)+E(xc)   XCENC  =      5718.00510425
  PAW double counting   =    172361.15642774  -181272.45834873
  entropy T*S    EENTRO =         0.16410603
  eigenvalues    EBANDS =    -15829.28708244
  atomic energy  EATOM  =    224016.65216645
  Solvation  Ediel_sol  =         0.00000000
  ---------------------------------------------------
  free energy    TOTEN  =      -433.37949902 eV

  energy without entropy =     -433.54360506  energy(sigma->0) =     -433.43420103


--------------------------------------------------------------------------------------------------------




----------------------------------------- Iteration    1(   6)  ---------------------------------------


    POTLOK:  cpu time    0.5009: real time    0.5011
    SETDIJ:  cpu time    0.0940: real time    0.0932
     EDDAV:  cpu time  304.7787: real time  304.5275
       DOS:  cpu time    0.0180: real time    0.0179
    CHARGE:  cpu time   14.3598: real time   14.3485
    MIXING:  cpu time    0.0500: real time    0.0488
    --------------------------------------------
      LOOP:  cpu time  319.8014: real time  319.5379

 eigenvalue-minimisations  : 10880
 total energy-change (2. order) : 0.3531456E+02  (-0.5910767E+02)
 number of electron    1023.9992371 magnetization      51.4298243
 augmentation part      629.0136034 magnetization      45.7147691

 Broyden mixing:
  rms(total) = 0.47951E+01    rms(broyden)= 0.47947E+01
  rms(prec ) = 0.60199E+01
  weight for this iteration     100.00

 eigenvalues of (default mixing * dielectric matrix)
  average eigenvalue GAMMA=   0.5687
  0.5687

 Free energy of the ion-electron system (eV)
  ---------------------------------------------------
  alpha Z        PSCENC =      9846.09864404
  Ewald energy   TEWEN  =   -153431.04596335
  -Hartree energ DENC   =    -58659.36835660
  -exchange      EXHF   =         0.00000000
  -V(xc)+E(xc)   XCENC  =      5595.53015681
  PAW double counting   =    168059.71000763  -176661.79527867
  entropy T*S    EENTRO =        -0.33762692
  eigenvalues    EBANDS =    -19163.50869284
  atomic energy  EATOM  =    224016.65216645
  Solvation  Ediel_sol  =         0.00000000
  ---------------------------------------------------
  free energy    TOTEN  =      -398.06494345 eV

  energy without entropy =     -397.72731653  energy(sigma->0) =     -397.95240114


--------------------------------------------------------------------------------------------------------




----------------------------------------- Iteration    1(   7)  ---------------------------------------


    POTLOK:  cpu time    1.0388: real time    1.0384
    SETDIJ:  cpu time    0.2180: real time    0.2175
     EDDAV:  cpu time  326.4624: real time  326.1925
       DOS:  cpu time    0.0240: real time    0.0241
    CHARGE:  cpu time   14.2878: real time   14.2754
    MIXING:  cpu time    0.0510: real time    0.0508
    --------------------------------------------
      LOOP:  cpu time  342.0820: real time  341.8098

 eigenvalue-minimisations  : 10856
 total energy-change (2. order) : 0.2766529E+02  (-0.1133213E+02)
 number of electron    1023.9992673 magnetization      45.9922549
 augmentation part      606.0288618 magnetization      37.8912405

 Broyden mixing:
  rms(total) = 0.60113E+00    rms(broyden)= 0.60081E+00
  rms(prec ) = 0.72975E+00
  weight for this iteration     100.00

 eigenvalues of (default mixing * dielectric matrix)
  average eigenvalue GAMMA=   0.7840
  0.9780  0.5899

 Free energy of the ion-electron system (eV)
  ---------------------------------------------------
  alpha Z        PSCENC =      9846.09864404
  Ewald energy   TEWEN  =   -153431.04596335
  -Hartree energ DENC   =    -59769.05718658
  -exchange      EXHF   =         0.00000000
  -V(xc)+E(xc)   XCENC  =      5637.49069286
  PAW double counting   =    170526.90174335  -179410.99612862
  entropy T*S    EENTRO =        -0.05175961
  eigenvalues    EBANDS =    -17786.39185985
  atomic energy  EATOM  =    224016.65216645
  Solvation  Ediel_sol  =         0.00000000
  ---------------------------------------------------
  free energy    TOTEN  =      -370.39965131 eV

  energy without entropy =     -370.34789170  energy(sigma->0) =     -370.38239810


--------------------------------------------------------------------------------------------------------




----------------------------------------- Iteration    1(   8)  ---------------------------------------


    POTLOK:  cpu time    0.9799: real time    0.9786
    SETDIJ:  cpu time    0.1940: real time    0.1942
     EDDAV:  cpu time  332.5055: real time  332.2315
       DOS:  cpu time    0.0240: real time    0.0241
    CHARGE:  cpu time   14.4048: real time   14.3923
    MIXING:  cpu time    0.0450: real time    0.0446
    --------------------------------------------
      LOOP:  cpu time  348.1711: real time  347.8827

 eigenvalue-minimisations  : 11152
 total energy-change (2. order) : 0.4170351E-01  (-0.1226816E+00)
 number of electron    1023.9992675 magnetization      43.0767303
 augmentation part      605.7310453 magnetization      36.2420507

 Broyden mixing:
  rms(total) = 0.29439E+00    rms(broyden)= 0.29436E+00
  rms(prec ) = 0.39273E+00
  weight for this iteration     100.00

 eigenvalues of (default mixing * dielectric matrix)
  average eigenvalue GAMMA=   1.1425
  0.6053  0.8831  1.9392

 Free energy of the ion-electron system (eV)
  ---------------------------------------------------
  alpha Z        PSCENC =      9846.09864404
  Ewald energy   TEWEN  =   -153431.04596335
  -Hartree energ DENC   =    -59631.46379461
  -exchange      EXHF   =         0.00000000
  -V(xc)+E(xc)   XCENC  =      5633.16452874
  PAW double counting   =    171203.53833882  -180191.32771582
  entropy T*S    EENTRO =        -0.06835975
  eigenvalues    EBANDS =    -17815.90579231
  atomic energy  EATOM  =    224016.65216645
  Solvation  Ediel_sol  =         0.00000000
  ---------------------------------------------------
  free energy    TOTEN  =      -370.35794779 eV

  energy without entropy =     -370.28958804  energy(sigma->0) =     -370.33516121


--------------------------------------------------------------------------------------------------------




----------------------------------------- Iteration    1(   9)  ---------------------------------------


    POTLOK:  cpu time    1.0038: real time    1.0036
    SETDIJ:  cpu time    0.1960: real time    0.1952
     EDDAV:  cpu time  347.2702: real time  346.9839
       DOS:  cpu time    0.0040: real time    0.0041
    CHARGE:  cpu time   14.7318: real time   14.7189
    MIXING:  cpu time    0.0580: real time    0.0571
    --------------------------------------------
      LOOP:  cpu time  363.2638: real time  362.9636

 eigenvalue-minimisations  : 11784
 total energy-change (2. order) : 0.1402302E+00  (-0.2006079E-01)
 number of electron    1023.9992665 magnetization      43.3158661
 augmentation part      606.4760963 magnetization      37.2501045

 Broyden mixing:
  rms(total) = 0.77355E-01    rms(broyden)= 0.77344E-01
  rms(prec ) = 0.79935E-01
  weight for this iteration     100.00

 eigenvalues of (default mixing * dielectric matrix)
  average eigenvalue GAMMA=   1.0972
  2.1963  0.9548  0.6189  0.6189

 Free energy of the ion-electron system (eV)
  ---------------------------------------------------
  alpha Z        PSCENC =      9846.09864404
  Ewald energy   TEWEN  =   -153431.04596335
  -Hartree energ DENC   =    -59486.34087111
  -exchange      EXHF   =         0.00000000
  -V(xc)+E(xc)   XCENC  =      5628.38194165
  PAW double counting   =    171712.73490438  -180770.44526029
  entropy T*S    EENTRO =        -0.08673717
  eigenvalues    EBANDS =    -17886.16654214
  atomic energy  EATOM  =    224016.65216645
  Solvation  Ediel_sol  =         0.00000000
  ---------------------------------------------------
  free energy    TOTEN  =      -370.21771755 eV

  energy without entropy =     -370.13098037  energy(sigma->0) =     -370.18880516


--------------------------------------------------------------------------------------------------------




----------------------------------------- Iteration    1(  10)  ---------------------------------------


    POTLOK:  cpu time    1.1198: real time    1.1190
    SETDIJ:  cpu time    0.2170: real time    0.2171
     EDDAV:  cpu time  344.4186: real time  344.1337
       DOS:  cpu time    0.0190: real time    0.0196
    CHARGE:  cpu time   14.4628: real time   14.4497
    MIXING:  cpu time    0.0780: real time    0.0781
    --------------------------------------------
      LOOP:  cpu time  360.3152: real time  360.0181

 eigenvalue-minimisations  : 11592
 total energy-change (2. order) :-0.4848422E-02  (-0.1262751E-02)
 number of electron    1023.9992666 magnetization      43.9001619
 augmentation part      606.4715075 magnetization      37.7692432

 Broyden mixing:
  rms(total) = 0.30789E-01    rms(broyden)= 0.30785E-01
  rms(prec ) = 0.31912E-01
  weight for this iteration     100.00

 eigenvalues of (default mixing * dielectric matrix)
  average eigenvalue GAMMA=   1.2466
  2.2995  1.7042  1.0031  0.6131  0.6131

 Free energy of the ion-electron system (eV)
  ---------------------------------------------------
  alpha Z        PSCENC =      9846.09864404
  Ewald energy   TEWEN  =   -153431.04596335
  -Hartree energ DENC   =    -59478.11772372
  -exchange      EXHF   =         0.00000000
  -V(xc)+E(xc)   XCENC  =      5628.15935563
  PAW double counting   =    171807.64802238  -180871.12976773
  entropy T*S    EENTRO =        -0.08581346
  eigenvalues    EBANDS =    -17888.40148620
  atomic energy  EATOM  =    224016.65216645
  Solvation  Ediel_sol  =         0.00000000
  ---------------------------------------------------
  free energy    TOTEN  =      -370.22256597 eV

  energy without entropy =     -370.13675251  energy(sigma->0) =     -370.19396148


--------------------------------------------------------------------------------------------------------




----------------------------------------- Iteration    1(  11)  ---------------------------------------


    POTLOK:  cpu time    1.0818: real time    1.0815
    SETDIJ:  cpu time    0.2290: real time    0.2282
     EDDAV:  cpu time  329.0490: real time  328.7775
       DOS:  cpu time    0.0250: real time    0.0242
    CHARGE:  cpu time   14.5168: real time   14.5054
    MIXING:  cpu time    0.0470: real time    0.0470
    --------------------------------------------
      LOOP:  cpu time  344.9676: real time  344.6829

 eigenvalue-minimisations  : 11048
 total energy-change (2. order) :-0.3337445E-02  (-0.5351786E-03)
 number of electron    1023.9992667 magnetization      43.8978687
 augmentation part      606.4016655 magnetization      37.6247259

 Broyden mixing:
  rms(total) = 0.10211E-01    rms(broyden)= 0.10207E-01
  rms(prec ) = 0.12969E-01
  weight for this iteration     100.00

 eigenvalues of (default mixing * dielectric matrix)
  average eigenvalue GAMMA=   1.1824
  2.3803  1.7541  1.0151  0.6922  0.6526  0.6002

 Free energy of the ion-electron system (eV)
  ---------------------------------------------------
  alpha Z        PSCENC =      9846.09864404
  Ewald energy   TEWEN  =   -153431.04596335
  -Hartree energ DENC   =    -59479.48543325
  -exchange      EXHF   =         0.00000000
  -V(xc)+E(xc)   XCENC  =      5628.20429091
  PAW double counting   =    171918.16036436  -180983.43277612
  entropy T*S    EENTRO =        -0.08421307
  eigenvalues    EBANDS =    -17885.29298338
  atomic energy  EATOM  =    224016.65216645
  Solvation  Ediel_sol  =         0.00000000
  ---------------------------------------------------
  free energy    TOTEN  =      -370.22590341 eV

  energy without entropy =     -370.14169035  energy(sigma->0) =     -370.19783239


--------------------------------------------------------------------------------------------------------




----------------------------------------- Iteration    1(  12)  ---------------------------------------


    POTLOK:  cpu time    1.0198: real time    1.0195
    SETDIJ:  cpu time    0.1970: real time    0.1964
     EDDAV:  cpu time  324.0747: real time  323.8076
       DOS:  cpu time    0.0150: real time    0.0141
    CHARGE:  cpu time   14.7908: real time   14.7786
    MIXING:  cpu time    0.0740: real time    0.0736
    --------------------------------------------
      LOOP:  cpu time  340.1823: real time  339.9128

 eigenvalue-minimisations  : 10824
 total energy-change (2. order) :-0.3226881E-04  (-0.6133455E-04)
 number of electron    1023.9992666 magnetization      43.8825145
 augmentation part      606.4442071 magnetization      37.6091833

 Broyden mixing:
  rms(total) = 0.28429E-02    rms(broyden)= 0.28400E-02
  rms(prec ) = 0.29928E-02
  weight for this iteration     100.00

 eigenvalues of (default mixing * dielectric matrix)
  average eigenvalue GAMMA=   1.1883
  2.4287  1.6923  1.3220  0.9375  0.7042  0.6050  0.6287

 Free energy of the ion-electron system (eV)
  ---------------------------------------------------
  alpha Z        PSCENC =      9846.09864404
  Ewald energy   TEWEN  =   -153431.04596335
  -Hartree energ DENC   =    -59476.58514025
  -exchange      EXHF   =         0.00000000
  -V(xc)+E(xc)   XCENC  =      5628.09280482
  PAW double counting   =    171937.22539704  -181002.51375429
  entropy T*S    EENTRO =        -0.08570237
  eigenvalues    EBANDS =    -17888.06438777
  atomic energy  EATOM  =    224016.65216645
  Solvation  Ediel_sol  =         0.00000000
  ---------------------------------------------------
  free energy    TOTEN  =      -370.22593568 eV

  energy without entropy =     -370.14023331  energy(sigma->0) =     -370.19736823


--------------------------------------------------------------------------------------------------------




----------------------------------------- Iteration    1(  13)  ---------------------------------------


    POTLOK:  cpu time    1.0528: real time    1.0526
    SETDIJ:  cpu time    0.1980: real time    0.1972
     EDDAV:  cpu time  314.2552: real time  313.9955
       DOS:  cpu time    0.0400: real time    0.0401
    CHARGE:  cpu time   14.3318: real time   14.3193
    MIXING:  cpu time    0.0530: real time    0.0528
    --------------------------------------------
      LOOP:  cpu time  329.9468: real time  329.6837

 eigenvalue-minimisations  : 10424
 total energy-change (2. order) :-0.8290721E-05  (-0.3009810E-05)
 number of electron    1023.9992666 magnetization      43.8731860
 augmentation part      606.4528835 magnetization      37.6004632

 Broyden mixing:
  rms(total) = 0.19989E-02    rms(broyden)= 0.19988E-02
  rms(prec ) = 0.26449E-02
  weight for this iteration     100.00

 eigenvalues of (default mixing * dielectric matrix)
  average eigenvalue GAMMA=   1.2427
  2.4411  1.8513  1.8513  1.0229  0.6135  0.6135  0.7738  0.7738

 Free energy of the ion-electron system (eV)
  ---------------------------------------------------
  alpha Z        PSCENC =      9846.09864404
  Ewald energy   TEWEN  =   -153431.04596335
  -Hartree energ DENC   =    -59476.35170836
  -exchange      EXHF   =         0.00000000
  -V(xc)+E(xc)   XCENC  =      5628.08115091
  PAW double counting   =    171948.49742737  -181013.47751951
  entropy T*S    EENTRO =        -0.08615102
  eigenvalues    EBANDS =    -17888.59399051
  atomic energy  EATOM  =    224016.65216645
  Solvation  Ediel_sol  =         0.00000000
  ---------------------------------------------------
  free energy    TOTEN  =      -370.22594397 eV

  energy without entropy =     -370.13979296  energy(sigma->0) =     -370.19722697


--------------------------------------------------------------------------------------------------------




----------------------------------------- Iteration    1(  14)  ---------------------------------------


    POTLOK:  cpu time    1.0068: real time    1.0061
    SETDIJ:  cpu time    0.1940: real time    0.1927
     EDDAV:  cpu time  284.7017: real time  284.4685
       DOS:  cpu time    0.0240: real time    0.0241
    CHARGE:  cpu time   14.3868: real time   14.3746
    MIXING:  cpu time    0.0610: real time    0.0599
    --------------------------------------------
      LOOP:  cpu time  300.3893: real time  300.1416

 eigenvalue-minimisations  :  9208
 total energy-change (2. order) : 0.2146105E-04  (-0.9405898E-06)
 number of electron    1023.9992666 magnetization      43.8728459
 augmentation part      606.4476018 magnetization      37.6006033

 Broyden mixing:
  rms(total) = 0.57581E-03    rms(broyden)= 0.57572E-03
  rms(prec ) = 0.74194E-03
  weight for this iteration     100.00

 eigenvalues of (default mixing * dielectric matrix)
  average eigenvalue GAMMA=   1.2720
  2.5408  2.4184  1.7824  1.1136  0.8507  0.8507  0.6108  0.6213  0.6591

 Free energy of the ion-electron system (eV)
  ---------------------------------------------------
  alpha Z        PSCENC =      9846.09864404
  Ewald energy   TEWEN  =   -153431.04596335
  -Hartree energ DENC   =    -59477.03904566
  -exchange      EXHF   =         0.00000000
  -V(xc)+E(xc)   XCENC  =      5628.10543724
  PAW double counting   =    171958.14100280  -181022.80270510
  entropy T*S    EENTRO =        -0.08623171
  eigenvalues    EBANDS =    -17888.24922722
  atomic energy  EATOM  =    224016.65216645
  Solvation  Ediel_sol  =         0.00000000
  ---------------------------------------------------
  free energy    TOTEN  =      -370.22592251 eV

  energy without entropy =     -370.13969080  energy(sigma->0) =     -370.19717861


--------------------------------------------------------------------------------------------------------




----------------------------------------- Iteration    1(  15)  ---------------------------------------


    POTLOK:  cpu time    1.0558: real time    1.0549
    SETDIJ:  cpu time    0.2170: real time    0.2172
     EDDAV:  cpu time  197.9379: real time  197.7745
       DOS:  cpu time    0.0270: real time    0.0271
    CHARGE:  cpu time   14.3688: real time   14.3565
    MIXING:  cpu time    0.1080: real time    0.1073
    --------------------------------------------
      LOOP:  cpu time  213.7145: real time  213.5382

 eigenvalue-minimisations  :  5472
 total energy-change (2. order) : 0.6305199E-05  (-0.1203756E-06)
 number of electron    1023.9992666 magnetization      43.8744083
 augmentation part      606.4454458 magnetization      37.6021428

 Broyden mixing:
  rms(total) = 0.20174E-03    rms(broyden)= 0.20167E-03
  rms(prec ) = 0.20254E-03
  weight for this iteration     100.00

 eigenvalues of (default mixing * dielectric matrix)
  average eigenvalue GAMMA=   1.2474
  2.6243  2.4327  1.6993  1.2870  0.9102  0.9102  0.7464  0.6148  0.6148  0.6344

 Free energy of the ion-electron system (eV)
  ---------------------------------------------------
  alpha Z        PSCENC =      9846.09864404
  Ewald energy   TEWEN  =   -153431.04596335
  -Hartree energ DENC   =    -59477.26275317
  -exchange      EXHF   =         0.00000000
  -V(xc)+E(xc)   XCENC  =      5628.11382643
  PAW double counting   =    171960.56568153  -181025.14239475
  entropy T*S    EENTRO =        -0.08616835
  eigenvalues    EBANDS =    -17888.11895504
  atomic energy  EATOM  =    224016.65216645
  Solvation  Ediel_sol  =         0.00000000
  ---------------------------------------------------
  free energy    TOTEN  =      -370.22591621 eV

  energy without entropy =     -370.13974786  energy(sigma->0) =     -370.19719343


--------------------------------------------------------------------------------------------------------




----------------------------------------- Iteration    1(  16)  ---------------------------------------


    POTLOK:  cpu time    0.9769: real time    0.9767
    SETDIJ:  cpu time    0.2050: real time    0.2032
     EDDAV:  cpu time  198.4948: real time  198.3314
       DOS:  cpu time    0.0380: real time    0.0373
    --------------------------------------------
      LOOP:  cpu time  199.7306: real time  199.5772

 eigenvalue-minimisations  :  5432
 total energy-change (2. order) : 0.3707828E-07  (-0.2140495E-07)
 number of electron    1023.9992666 magnetization      43.8744083
 augmentation part      606.4454458 magnetization      37.6021428

 Free energy of the ion-electron system (eV)
  ---------------------------------------------------
  alpha Z        PSCENC =      9846.09864404
  Ewald energy   TEWEN  =   -153431.04596335
  -Hartree energ DENC   =    -59477.26847960
  -exchange      EXHF   =         0.00000000
  -V(xc)+E(xc)   XCENC  =      5628.11442351
  PAW double counting   =    171960.49483871  -181025.06678424
  entropy T*S    EENTRO =        -0.08612874
  eigenvalues    EBANDS =    -17888.11863294
  atomic energy  EATOM  =    224016.65216645
  Solvation  Ediel_sol  =         0.00000000
  ---------------------------------------------------
  free energy    TOTEN  =      -370.22591617 eV

  energy without entropy =     -370.13978743  energy(sigma->0) =     -370.19720659


--------------------------------------------------------------------------------------------------------




 average (electrostatic) potential at core
  the test charge radii are     0.8614
  (the norm of the test charge is              1.0000)
       1 -79.4465       2 -79.4465       3 -79.4465       4 -79.4465       5 -79.4465
       6 -79.4465       7 -79.4465       8 -79.4465       9 -79.4465      10 -79.4465
      11 -79.4465      12 -79.4465      13 -79.4465      14 -79.4465      15 -79.4465
      16 -79.4465      17 -79.4465      18 -79.4465      19 -79.4465      20 -79.4465
      21 -79.4465      22 -79.4465      23 -79.4465      24 -79.4465      25 -79.4465
      26 -79.4465      27 -79.4465      28 -79.4465      29 -79.4465      30 -79.4465
      31 -79.4465      32 -79.4465      33 -79.4465      34 -79.4465      35 -79.4465
      36 -79.4465      37 -79.4465      38 -79.4465      39 -79.4465      40 -79.4465
      41 -79.4465      42 -79.4465      43 -79.4465      44 -79.4465      45 -79.4465
      46 -79.4465      47 -79.4465      48 -79.4465      49 -79.4465      50 -79.4465
      51 -79.4465      52 -79.4465      53 -79.4465      54 -79.4465      55 -79.4465
      56 -79.4465      57 -79.4465      58 -79.4465      59 -79.4465      60 -79.4465
      61 -79.4465      62 -79.4465      63 -79.4465      64 -79.4465
 
 
 
 E-fermi :   7.8082     XC(G=0): -13.7432     alpha+bet :-14.7865


 spin component 1

 k-point     1 :       0.0000    0.0000    0.0000
  band No.  band energies     occupation 
      1     -56.2790      1.00000
      2     -56.2790      1.00000
      3     -56.2790      1.00000
      4     -56.2790      1.00000
      5     -56.2679      1.00000
      6     -56.2679      1.00000
      7     -56.2679      1.00000
      8     -56.2435      1.00000
      9     -56.2435      1.00000
     10     -56.2435      1.00000
     11     -56.2435      1.00000
     12     -56.2435      1.00000
     13     -56.2435      1.00000
     14     -56.2434      1.00000
     15     -56.2434      1.00000
     16     -56.2434      1.00000
     17     -56.2434      1.00000
     18     -56.2434      1.00000
     19     -56.2434      1.00000
     20     -56.2434      1.00000
     21     -56.2434      1.00000
     22     -56.2434      1.00000
     23     -56.2434      1.00000
     24     -56.2434      1.00000
     25     -56.2434      1.00000
     26     -56.2434      1.00000
     27     -56.2434      1.00000
     28     -56.2434      1.00000
     29     -56.2434      1.00000
     30     -56.2434      1.00000
     31     -56.2434      1.00000
     32     -56.2192      1.00000
     33     -56.2192      1.00000
     34     -56.2192      1.00000
     35     -56.2192      1.00000
     36     -56.2192      1.00000
     37     -56.2192      1.00000
     38     -56.2192      1.00000
     39     -56.2192      1.00000
     40     -56.2192      1.00000
     41     -56.2192      1.00000
     42     -56.2192      1.00000
     43     -56.2192      1.00000
     44     -56.2078      1.00000
     45     -56.2078      1.00000
     46     -56.2078      1.00000
     47     -56.2078      1.00000
     48     -56.2078      1.00000
     49     -56.2078      1.00000
     50     -56.2077      1.00000
     51     -56.2077      1.00000
     52     -56.2077      1.00000
     53     -56.2077      1.00000
     54     -56.2077      1.00000
     55     -56.2077      1.00000
     56     -56.1743      1.00000
     57     -56.1743      1.00000
     58     -56.1742      1.00000
     59     -56.1742      1.00000
     60     -56.1742      1.00000
     61     -56.1742      1.00000
     62     -56.1742      1.00000
     63     -56.1742      1.00000
     64     -56.1697      1.00000
     65     -56.1697      1.00000
     66     -56.1697      1.00000
     67     -56.1697      1.00000
     68     -56.1697      1.00000
     69     -56.1697      1.00000
     70     -56.1577      1.00000
     71     -56.1577      1.00000
     72     -56.1577      1.00000
     73     -56.1577      1.00000
     74     -56.1577      1.00000
     75     -56.1577      1.00000
     76     -56.1577      1.00000
     77     -56.1577      1.00000
     78     -56.1577      1.00000
     79     -56.1577      1.00000
     80     -56.1577      1.00000
     81     -56.1577      1.00000
     82     -56.1532      1.00000
     83     -56.1532      1.00000
     84     -56.1532      1.00000
     85     -56.1532      1.00000
     86     -56.1532      1.00000
     87     -56.1532      1.00000
     88     -56.1531      1.00000
     89     -56.1531      1.00000
     90     -56.1531      1.00000
     91     -56.1531      1.00000
     92     -56.1531      1.00000
     93     -56.1531      1.00000
     94     -56.1531      1.00000
     95     -56.1531      1.00000
     96     -56.1531      1.00000
     97     -56.1531      1.00000
     98     -56.1531      1.00000
     99     -56.1531      1.00000
    100     -56.1531      1.00000
    101     -56.1531      1.00000
    102     -56.1531      1.00000
    103     -56.1531      1.00000
    104     -56.1531      1.00000
    105     -56.1531      1.00000
    106     -56.1484      1.00000
    107     -56.1484      1.00000
    108     -56.1484      1.00000
    109     -56.1484      1.00000
    110     -56.1484      1.00000
    111     -56.1484      1.00000
    112     -56.1471      1.00000
    113     -56.1471      1.00000
    114     -56.1471      1.00000
    115     -56.1471      1.00000
    116     -56.1471      1.00000
    117     -56.1471      1.00000
    118     -56.1227      1.00000
    119     -56.1227      1.00000
    120     -56.1227      1.00000
    121     -56.1227      1.00000
    122     -56.1227      1.00000
    123     -56.1227      1.00000
    124     -56.1227      1.00000
    125     -56.1227      1.00000
    126     -56.1227      1.00000
    127     -56.1227      1.00000
    128     -56.1227      1.00000
    129     -56.1227      1.00000
    130     -56.1227      1.00000
    131     -56.1227      1.00000
    132     -56.1227      1.00000
    133     -56.1227      1.00000
    134     -56.1227      1.00000
    135     -56.1227      1.00000
    136     -56.1227      1.00000
    137     -56.1227      1.00000
    138     -56.1227      1.00000
    139     -56.1227      1.00000
    140     -56.1227      1.00000
    141     -56.1227      1.00000
    142     -56.1076      1.00000
    143     -56.1076      1.00000
    144     -56.1076      1.00000
    145     -56.1076      1.00000
    146     -56.1076      1.00000
    147     -56.1076      1.00000
    148     -56.1075      1.00000
    149     -56.1075      1.00000
    150     -56.1075      1.00000
    151     -56.1075      1.00000
    152     -56.1075      1.00000
    153     -56.1075      1.00000
    154     -56.0984      1.00000
    155     -56.0984      1.00000
    156     -56.0984      1.00000
    157     -56.0984      1.00000
    158     -56.0984      1.00000
    159     -56.0984      1.00000
    160     -56.0984      1.00000
    161     -56.0984      1.00000
    162     -56.0984      1.00000
    163     -56.0984      1.00000
    164     -56.0984      1.00000
    165     -56.0984      1.00000
    166     -56.0983      1.00000
    167     -56.0983      1.00000
    168     -56.0983      1.00000
    169     -56.0983      1.00000
    170     -56.0983      1.00000
    171     -56.0983      1.00000
    172     -56.0983      1.00000
    173     -56.0983      1.00000
    174     -56.0832      1.00000
    175     -56.0832      1.00000
    176     -56.0832      1.00000
    177     -56.0832      1.00000
    178     -56.0832      1.00000
    179     -56.0832      1.00000
    180     -56.0831      1.00000
    181     -56.0831      1.00000
    182     -56.0831      1.00000
    183     -56.0831      1.00000
    184     -56.0831      1.00000
    185     -56.0831      1.00000
    186     -56.0831      1.00000
    187     -56.0831      1.00000
    188     -56.0831      1.00000
    189     -56.0831      1.00000
    190     -56.0678      1.00000
    191     -56.0678      1.00000
    192     -56.0678      1.00000
    193      -1.2238      1.00000
    194       0.9977      1.00000
    195       0.9977      1.00000
    196       0.9977      1.00000
    197       0.9977      1.00000
    198       0.9977      1.00000
    199       0.9978      1.00000
    200       0.9978      1.00000
    201       0.9978      1.00000
    202       1.6520      1.00000
    203       1.6520      1.00000
    204       1.6520      1.00000
    205       1.6520      1.00000
    206       1.6520      1.00000
    207       1.6520      1.00000
    208       2.9455      1.00000
    209       2.9456      1.00000
    210       2.9456      1.00000
    211       2.9456      1.00000
    212       3.1271      1.00000
    213       3.1271      1.00000
    214       3.1272      1.00000
    215       3.5421      1.00000
    216       3.5421      1.00000
    217       3.5421      1.00000
    218       3.5421      1.00000
    219       3.5421      1.00000
    220       3.5421      1.00000
    221       3.5421      1.00000
    222       3.5421      1.00000
    223       3.5421      1.00000
    224       3.5421      1.00000
    225       3.5421      1.00000
    226       3.5421      1.00000
    227       3.5886      1.00000
    228       3.5886      1.00000
    229       3.5886      1.00000
    230       3.6864      1.00000
    231       3.6864      1.00000
    232       3.6864      1.00000
    233       3.6864      1.00000
    234       3.6864      1.00000
    235       3.6864      1.00000
    236       3.6864      1.00000
    237       3.6864      1.00000
    238       3.6864      1.00000
    239       3.6864      1.00000
    240       3.6864      1.00000
    241       3.6864      1.00000
    242       3.6864      1.00000
    243       3.6864      1.00000
    244       3.6864      1.00000
    245       3.6864      1.00000
    246       3.6864      1.00000
    247       3.6864      1.00000
    248       3.6864      1.00000
    249       3.6864      1.00000
    250       3.6864      1.00000
    251       3.6864      1.00000
    252       3.6864      1.00000
    253       3.6864      1.00000
    254       4.0072      1.00000
    255       4.0072      1.00000
    256       4.0072      1.00000
    257       4.0072      1.00000
    258       4.0072      1.00000
    259       4.0072      1.00000
    260       4.3275      1.00000
    261       4.3275      1.00000
    262       4.3275      1.00000
    263       4.3275      1.00000
    264       4.3275      1.00000
    265       4.3275      1.00000
    266       4.3275      1.00000
    267       4.3275      1.00000
    268       4.3275      1.00000
    269       4.3275      1.00000
    270       4.3275      1.00000
    271       4.3275      1.00000
    272       4.3275      1.00000
    273       4.3275      1.00000
    274       4.3275      1.00000
    275       4.3275      1.00000
    276       4.3275      1.00000
    277       4.3275      1.00000
    278       4.3275      1.00000
    279       4.3275      1.00000
    280       4.3275      1.00000
    281       4.3275      1.00000
    282       4.3275      1.00000
    283       4.3275      1.00000
    284       4.4293      1.00000
    285       4.4293      1.00000
    286       4.4293      1.00000
    287       4.4294      1.00000
    288       4.4294      1.00000
    289       4.4294      1.00000
    290       4.7062      1.00000
    291       4.7062      1.00000
    292       4.7062      1.00000
    293       4.7062      1.00000
    294       4.7062      1.00000
    295       4.7062      1.00000
    296       4.7062      1.00000
    297       4.7062      1.00000
    298       4.7062      1.00000
    299       4.7063      1.00000
    300       4.7063      1.00000
    301       4.7063      1.00000
    302       4.7078      1.00000
    303       4.7078      1.00000
    304       4.7078      1.00000
    305       4.7078      1.00000
    306       4.7078      1.00000
    307       4.7078      1.00000
    308       4.7078      1.00000
    309       4.7078      1.00000
    310       4.7078      1.00000
    311       4.7078      1.00000
    312       4.7078      1.00000
    313       4.7078      1.00000
    314       5.0142      1.00000
    315       5.0142      1.00000
    316       5.0142      1.00000
    317       5.0143      1.00000
    318       5.0143      1.00000
    319       5.0143      1.00000
    320       5.0143      1.00000
    321       5.0143      1.00000
    322       5.0143      1.00000
    323       5.0143      1.00000
    324       5.0143      1.00000
    325       5.0143      1.00000
    326       5.0235      1.00000
    327       5.0235      1.00000
[...]
      7.050000  3.525000  3.525000     0.108409    0.062219    0.001065  
      8.812500  5.287500  3.525000     0.108409    0.062219    0.001065  
      5.287500  0.000000  5.287500     0.108409    0.062219    0.001065  
      7.050000  1.762500  5.287500     0.108409    0.062219    0.001065  
      8.812500  3.525000  5.287500     0.108409    0.062219    0.001065  
     10.575000  5.287500  5.287500     0.108409    0.062219    0.001065  
      0.000000  1.762500  1.762500     0.108409    0.062219    0.001065  
      1.762500  3.525000  1.762500     0.108409    0.062219    0.001065  
      3.525000  5.287500  1.762500     0.108409    0.062219    0.001065  
      5.287500  7.050000  1.762500     0.108409    0.062219    0.001065  
      1.762500  1.762500  3.525000     0.108409    0.062219    0.001065  
      3.525000  3.525000  3.525000     0.108409    0.062219    0.001065  
      5.287500  5.287500  3.525000     0.108409    0.062219    0.001065  
      7.050000  7.050000  3.525000     0.108409    0.062219    0.001065  
      3.525000  1.762500  5.287500     0.108409    0.062219    0.001065  
      5.287500  3.525000  5.287500     0.108409    0.062219    0.001065  
      7.050000  5.287500  5.287500     0.108409    0.062219    0.001065  
      8.812500  7.050000  5.287500     0.108409    0.062219    0.001065  
      5.287500  1.762500  7.050000     0.108409    0.062219    0.001065  
      7.050000  3.525000  7.050000     0.108409    0.062219    0.001065  
      8.812500  5.287500  7.050000     0.108409    0.062219    0.001065  
     10.575000  7.050000  7.050000     0.108409    0.062219    0.001065  
      0.000000  3.525000  3.525000     0.108409    0.062219    0.001065  
      1.762500  5.287500  3.525000     0.108409    0.062219    0.001065  
      3.525000  7.050000  3.525000     0.108409    0.062219    0.001065  
      5.287500  8.812500  3.525000     0.108409    0.062219    0.001065  
      1.762500  3.525000  5.287500     0.108409    0.062219    0.001065  
      3.525000  5.287500  5.287500     0.108409    0.062219    0.001065  
      5.287500  7.050000  5.287500     0.108409    0.062219    0.001065  
      7.050000  8.812500  5.287500     0.108409    0.062219    0.001065  
      3.525000  3.525000  7.050000     0.108409    0.062219    0.001065  
      5.287500  5.287500  7.050000     0.108409    0.062219    0.001065  
      7.050000  7.050000  7.050000     0.108409    0.062219    0.001065  
      8.812500  8.812500  7.050000     0.108409    0.062219    0.001065  
      5.287500  3.525000  8.812500     0.108409    0.062219    0.001065  
      7.050000  5.287500  8.812500     0.108409    0.062219    0.001065  
      8.812500  7.050000  8.812500     0.108409    0.062219    0.001065  
     10.575000  8.812500  8.812500     0.108409    0.062219    0.001065  
      0.000000  5.287500  5.287500     0.108409    0.062219    0.001065  
      1.762500  7.050000  5.287500     0.108409    0.062219    0.001065  
      3.525000  8.812500  5.287500     0.108409    0.062219    0.001065  
      5.287500 10.575000  5.287500     0.108409    0.062219    0.001065  
      1.762500  5.287500  7.050000     0.108409    0.062219    0.001065  
      3.525000  7.050000  7.050000     0.108409    0.062219    0.001065  
      5.287500  8.812500  7.050000     0.108409    0.062219    0.001065  
      7.050000 10.575000  7.050000     0.108409    0.062219    0.001065  
      3.525000  5.287500  8.812500     0.108409    0.062219    0.001065  
      5.287500  7.050000  8.812500     0.108409    0.062219    0.001065  
      7.050000  8.812500  8.812500     0.108409    0.062219    0.001065  
      8.812500 10.575000  8.812500     0.108409    0.062219    0.001065  
      5.287500  5.287500 10.575000     0.108409    0.062219    0.001065  
      7.050000  7.050000 10.575000     0.108409    0.062219    0.001065  
      8.812500  8.812500 10.575000     0.108409    0.062219    0.001065  
     10.575000 10.575000 10.575000     0.108409    0.062219    0.001065  
 
 192 f/i=    0.000001 THz     0.000004 2PiTHz    0.000021 cm-1     0.000003 meV
             X         Y         Z           dx          dy          dz
      0.000000  0.000000  0.000000    -0.000839   -0.000677    0.124995  
      1.762500  1.762500  0.000000    -0.000839   -0.000677    0.124995  
      3.525000  3.525000  0.000000    -0.000839   -0.000677    0.124995  
      5.287500  5.287500  0.000000    -0.000839   -0.000677    0.124995  
      1.762500  0.000000  1.762500    -0.000839   -0.000677    0.124995  
      3.525000  1.762500  1.762500    -0.000839   -0.000677    0.124995  
      5.287500  3.525000  1.762500    -0.000839   -0.000677    0.124995  
      7.050000  5.287500  1.762500    -0.000839   -0.000677    0.124995  
      3.525000  0.000000  3.525000    -0.000839   -0.000677    0.124995  
      5.287500  1.762500  3.525000    -0.000839   -0.000677    0.124995  
      7.050000  3.525000  3.525000    -0.000839   -0.000677    0.124995  
      8.812500  5.287500  3.525000    -0.000839   -0.000677    0.124995  
      5.287500  0.000000  5.287500    -0.000839   -0.000677    0.124995  
      7.050000  1.762500  5.287500    -0.000839   -0.000677    0.124995  
      8.812500  3.525000  5.287500    -0.000839   -0.000677    0.124995  
     10.575000  5.287500  5.287500    -0.000839   -0.000677    0.124995  
      0.000000  1.762500  1.762500    -0.000839   -0.000677    0.124995  
      1.762500  3.525000  1.762500    -0.000839   -0.000677    0.124995  
      3.525000  5.287500  1.762500    -0.000839   -0.000677    0.124995  
      5.287500  7.050000  1.762500    -0.000839   -0.000677    0.124995  
      1.762500  1.762500  3.525000    -0.000839   -0.000677    0.124995  
      3.525000  3.525000  3.525000    -0.000839   -0.000677    0.124995  
      5.287500  5.287500  3.525000    -0.000839   -0.000677    0.124995  
      7.050000  7.050000  3.525000    -0.000839   -0.000677    0.124995  
      3.525000  1.762500  5.287500    -0.000839   -0.000677    0.124995  
      5.287500  3.525000  5.287500    -0.000839   -0.000677    0.124995  
      7.050000  5.287500  5.287500    -0.000839   -0.000677    0.124995  
      8.812500  7.050000  5.287500    -0.000839   -0.000677    0.124995  
      5.287500  1.762500  7.050000    -0.000839   -0.000677    0.124995  
      7.050000  3.525000  7.050000    -0.000839   -0.000677    0.124995  
      8.812500  5.287500  7.050000    -0.000839   -0.000677    0.124995  
     10.575000  7.050000  7.050000    -0.000839   -0.000677    0.124995  
      0.000000  3.525000  3.525000    -0.000839   -0.000677    0.124995  
      1.762500  5.287500  3.525000    -0.000839   -0.000677    0.124995  
      3.525000  7.050000  3.525000    -0.000839   -0.000677    0.124995  
      5.287500  8.812500  3.525000    -0.000839   -0.000677    0.124995  
      1.762500  3.525000  5.287500    -0.000839   -0.000677    0.124995  
      3.525000  5.287500  5.287500    -0.000839   -0.000677    0.124995  
      5.287500  7.050000  5.287500    -0.000839   -0.000677    0.124995  
      7.050000  8.812500  5.287500    -0.000839   -0.000677    0.124995  
      3.525000  3.525000  7.050000    -0.000839   -0.000677    0.124995  
      5.287500  5.287500  7.050000    -0.000839   -0.000677    0.124995  
      7.050000  7.050000  7.050000    -0.000839   -0.000677    0.124995  
      8.812500  8.812500  7.050000    -0.000839   -0.000677    0.124995  
      5.287500  3.525000  8.812500    -0.000839   -0.000677    0.124995  
      7.050000  5.287500  8.812500    -0.000839   -0.000677    0.124995  
      8.812500  7.050000  8.812500    -0.000839   -0.000677    0.124995  
     10.575000  8.812500  8.812500    -0.000839   -0.000677    0.124995  
      0.000000  5.287500  5.287500    -0.000839   -0.000677    0.124995  
      1.762500  7.050000  5.287500    -0.000839   -0.000677    0.124995  
      3.525000  8.812500  5.287500    -0.000839   -0.000677    0.124995  
      5.287500 10.575000  5.287500    -0.000839   -0.000677    0.124995  
      1.762500  5.287500  7.050000    -0.000839   -0.000677    0.124995  
      3.525000  7.050000  7.050000    -0.000839   -0.000677    0.124995  
      5.287500  8.812500  7.050000    -0.000839   -0.000677    0.124995  
      7.050000 10.575000  7.050000    -0.000839   -0.000677    0.124995  
      3.525000  5.287500  8.812500    -0.000839   -0.000677    0.124995  
      5.287500  7.050000  8.812500    -0.000839   -0.000677    0.124995  
      7.050000  8.812500  8.812500    -0.000839   -0.000677    0.124995  
      8.812500 10.575000  8.812500    -0.000839   -0.000677    0.124995  
      5.287500  5.287500 10.575000    -0.000839   -0.000677    0.124995  
      7.050000  7.050000 10.575000    -0.000839   -0.000677    0.124995  
      8.812500  8.812500 10.575000    -0.000839   -0.000677    0.124995  
     10.575000 10.575000 10.575000    -0.000839   -0.000677    0.124995  
 

 ELASTIC MODULI CONTR FROM IONIC RELAXATION (kBar)
 Direction    XX          YY          ZZ          XY          YZ          ZX
 --------------------------------------------------------------------------------
 XX           0.0000      0.0000     -0.0000      0.0000     -0.0000     -0.0000
 YY           0.0000      0.0000      0.0000     -0.0000      0.0000     -0.0000
 ZZ           0.0000      0.0000      0.0000      0.0000      0.0000      0.0000
 XY           0.0000      0.0000     -0.0000      0.0000     -0.0000     -0.0000
 YZ          -0.0000      0.0000      0.0000     -0.0000      0.0000     -0.0000
 ZX          -0.0000     -0.0000      0.0000      0.0000     -0.0000      0.0000
 --------------------------------------------------------------------------------



--------------------------------------------------------------------------------------------------------


  LATTYP: Found a face centered cubic cell.
 ALAT       =    14.1000000000
  
  Lattice vectors:
  
 A1 = (   0.0000000000,   7.0500000000,   7.0500000000)
 A2 = (   7.0500000000,   0.0000000000,   7.0500000000)
 A3 = (   7.0500000000,   7.0500000000,   0.0000000000)


Analysis of symmetry for initial positions (statically):
=====================================================================
 Subroutine PRICEL returns following result:
 
  LATTYP: Found a face centered cubic cell.
 ALAT       =     3.5250000000
  
  Lattice vectors:
  
 A1 = (   0.0000000000,   1.7625000000,   1.7625000000)
 A2 = (   1.7625000000,   0.0000000000,   1.7625000000)
 A3 = (   1.7625000000,   1.7625000000,   0.0000000000)
 
  64 primitive cells build up your supercell.
 

 Routine SETGRP: Setting up the symmetry group for a 
 face centered cubic supercell.


 Subroutine GETGRP returns: Found 48 space group operations
 (whereof 48 operations were pure point group operations)
 out of a pool of 48 trial point group operations.


The static configuration has the point symmetry O_h .


Analysis of symmetry for dynamics (positions and initial velocities):
=====================================================================
 Subroutine PRICEL returns following result:
 
  LATTYP: Found a face centered cubic cell.
 ALAT       =     3.5250000000
  
  Lattice vectors:
  
 A1 = (   0.0000000000,   1.7625000000,   1.7625000000)
 A2 = (   1.7625000000,   0.0000000000,   1.7625000000)
 A3 = (   1.7625000000,   1.7625000000,   0.0000000000)
 
  64 primitive cells build up your supercell.
 

 Routine SETGRP: Setting up the symmetry group for a 
 face centered cubic supercell.


 Subroutine GETGRP returns: Found 48 space group operations
 (whereof 48 operations were pure point group operations)
 out of a pool of 48 trial point group operations.


The dynamic configuration has the point symmetry O_h .


Analysis of structural, dynamic, and magnetic symmetry:
=====================================================================
 Subroutine PRICEL returns following result:
 
  LATTYP: Found a face centered cubic cell.
 ALAT       =     3.5250000000
  
  Lattice vectors:
  
 A1 = (   0.0000000000,   1.7625000000,   1.7625000000)
 A2 = (   1.7625000000,   0.0000000000,   1.7625000000)
 A3 = (   1.7625000000,   1.7625000000,   0.0000000000)
 
  64 primitive cells build up your supercell.
 

 Routine SETGRP: Setting up the symmetry group for a 
 face centered cubic supercell.


 Subroutine GETGRP returns: Found 48 space group operations
 (whereof 48 operations were pure point group operations)
 out of a pool of 48 trial point group operations.


The magnetic configuration has the point symmetry O_h .


 Subroutine INISYM returns: Found 48 space group operations
 (whereof 48 operations are pure point group operations),
 and found    64 'primitive' translations

 
 KPOINTS: Zr 15x15x15                             

Automatic generation of k-mesh.
Space group operators:
 irot       det(A)        alpha          n_x          n_y          n_z        tau_x        tau_y        tau_z
    1     1.000000     0.000000     1.000000     0.000000     0.000000     0.000000     0.000000     0.000000
    2    -1.000000     0.000000     1.000000     0.000000     0.000000     0.000000     0.000000     0.000000
    3     1.000000   120.000000    -0.577350    -0.577350    -0.577350     0.000000     0.000000     0.000000
    4    -1.000000   120.000000    -0.577350    -0.577350    -0.577350     0.000000     0.000000     0.000000
    5     1.000000   120.000000     0.577350     0.577350     0.577350     0.000000     0.000000     0.000000
    6    -1.000000   120.000000     0.577350     0.577350     0.577350     0.000000     0.000000     0.000000
    7     1.000000    90.000000     0.000000     0.000000    -1.000000     0.000000     0.000000     0.000000
    8    -1.000000    90.000000     0.000000     0.000000    -1.000000     0.000000     0.000000     0.000000
    9     1.000000   180.000000     0.000000     0.707107     0.707107     0.000000     0.000000     0.000000
   10    -1.000000   180.000000     0.000000     0.707107     0.707107     0.000000     0.000000     0.000000
   11     1.000000    90.000000     0.000000     1.000000     0.000000     0.000000     0.000000     0.000000
   12    -1.000000    90.000000     0.000000     1.000000     0.000000     0.000000     0.000000     0.000000
   13     1.000000   180.000000     0.000000     0.000000     1.000000     0.000000     0.000000     0.000000
   14    -1.000000   180.000000     0.000000     0.000000     1.000000     0.000000     0.000000     0.000000
   15     1.000000   120.000000    -0.577350     0.577350     0.577350     0.000000     0.000000     0.000000
   16    -1.000000   120.000000    -0.577350     0.577350     0.577350     0.000000     0.000000     0.000000
   17     1.000000   120.000000    -0.577350     0.577350    -0.577350     0.000000     0.000000     0.000000
   18    -1.000000   120.000000    -0.577350     0.577350    -0.577350     0.000000     0.000000     0.000000
   19     1.000000    90.000000     0.000000     0.000000     1.000000     0.000000     0.000000     0.000000
   20    -1.000000    90.000000     0.000000     0.000000     1.000000     0.000000     0.000000     0.000000
   21     1.000000    90.000000    -1.000000     0.000000     0.000000     0.000000     0.000000     0.000000
   22    -1.000000    90.000000    -1.000000     0.000000     0.000000     0.000000     0.000000     0.000000
   23     1.000000   180.000000     0.707107     0.000000     0.707107     0.000000     0.000000     0.000000
   24    -1.000000   180.000000     0.707107     0.000000     0.707107     0.000000     0.000000     0.000000
   25     1.000000   120.000000     0.577350    -0.577350     0.577350     0.000000     0.000000     0.000000
   26    -1.000000   120.000000     0.577350    -0.577350     0.577350     0.000000     0.000000     0.000000
   27     1.000000   120.000000    -0.577350    -0.577350     0.577350     0.000000     0.000000     0.000000
   28    -1.000000   120.000000    -0.577350    -0.577350     0.577350     0.000000     0.000000     0.000000
   29     1.000000   180.000000     1.000000     0.000000     0.000000     0.000000     0.000000     0.000000
   30    -1.000000   180.000000     1.000000     0.000000     0.000000     0.000000     0.000000     0.000000
   31     1.000000    90.000000     0.000000    -1.000000     0.000000     0.000000     0.000000     0.000000
   32    -1.000000    90.000000     0.000000    -1.000000     0.000000     0.000000     0.000000     0.000000
   33     1.000000   180.000000     0.707107     0.707107     0.000000     0.000000     0.000000     0.000000
   34    -1.000000   180.000000     0.707107     0.707107     0.000000     0.000000     0.000000     0.000000
   35     1.000000    90.000000     1.000000     0.000000     0.000000     0.000000     0.000000     0.000000
   36    -1.000000    90.000000     1.000000     0.000000     0.000000     0.000000     0.000000     0.000000
   37     1.000000   120.000000     0.577350    -0.577350    -0.577350     0.000000     0.000000     0.000000
   38    -1.000000   120.000000     0.577350    -0.577350    -0.577350     0.000000     0.000000     0.000000
   39     1.000000   180.000000     0.000000     1.000000     0.000000     0.000000     0.000000     0.000000
   40    -1.000000   180.000000     0.000000     1.000000     0.000000     0.000000     0.000000     0.000000
   41     1.000000   120.000000     0.577350     0.577350    -0.577350     0.000000     0.000000     0.000000
   42    -1.000000   120.000000     0.577350     0.577350    -0.577350     0.000000     0.000000     0.000000
   43     1.000000   180.000000     0.000000    -0.707107     0.707107     0.000000     0.000000     0.000000
   44    -1.000000   180.000000     0.000000    -0.707107     0.707107     0.000000     0.000000     0.000000
   45     1.000000   180.000000     0.707107    -0.707107     0.000000     0.000000     0.000000     0.000000
   46    -1.000000   180.000000     0.707107    -0.707107     0.000000     0.000000     0.000000     0.000000
   47     1.000000   180.000000     0.707107     0.000000    -0.707107     0.000000     0.000000     0.000000
   48    -1.000000   180.000000     0.707107     0.000000    -0.707107     0.000000     0.000000     0.000000
 
 Subroutine IBZKPT returns following result:
 ===========================================
 
 Found      4 irreducible k-points:
 
 Following reciprocal coordinates:
            Coordinates               Weight
  0.000000  0.000000  0.000000      1.000000
  0.333333  0.000000  0.000000      8.000000
  0.333333  0.333333  0.000000      6.000000
 -0.333333  0.333333  0.000000     12.000000
 
 Following cartesian coordinates:
            Coordinates               Weight
  0.000000  0.000000  0.000000      1.000000
 -0.023641  0.023641  0.023641      8.000000
  0.000000  0.000000  0.047281      6.000000
  0.047281 -0.047281  0.000000     12.000000
 
 writing wavefunctions
     LOOP+:  cpu time 9150.6389: real time 9146.4525
    4ORBIT:  cpu time    0.0000: real time    0.0000

 total amount of memory used by VASP on root node   495413. kBytes
========================================================================

   base      :      30000. kBytes
   nonlr-proj:      38184. kBytes
   fftplans  :      16527. kBytes
   grid      :      59104. kBytes
   one-center:       1990. kBytes
   wavefun   :     349608. kBytes
 
  
  
 General timing and accounting informations for this job:
 ========================================================
  
                  Total CPU time used (sec):    21765.271
                            User time (sec):    20017.800
                          System time (sec):     1747.472
                         Elapsed time (sec):    21752.255
  
                   Maximum memory used (kb):     1233836.
                   Average memory used (kb):           0.
  
                          Minor page faults:       735058
                          Major page faults:            1
                 Voluntary context switches:         1025
