       N       E                     dE             d eps       ncg     rms          rms(c)
DAV:   1     0.115548327063E+03    0.11555E+03   -0.94826E+03 17200   0.127E+03
DAV:   2    -0.447878021684E+01   -0.12003E+03   -0.11211E+03 17664   0.348E+02
DAV:   3    -0.674966197153E+01   -0.22709E+01   -0.22623E+01 20160   0.547E+01
DAV:   4    -0.676384744095E+01   -0.14185E-01   -0.14185E-01 19256   0.408E+00
DAV:   5    -0.676405797981E+01   -0.21054E-03   -0.21057E-03 20840   0.477E-01    0.846E+00
DAV:   6    -0.624270913543E+01    0.52135E+00   -0.36179E+00 19424   0.470E+01    0.611E+00
DAV:   7    -0.579604238778E+01    0.44667E+00   -0.80979E-01 19256   0.209E+01    0.801E-01
DAV:   8    -0.578522711817E+01    0.10815E-01   -0.93704E-03 22272   0.974E-01    0.278E-01
DAV:   9    -0.578408742926E+01    0.11397E-02   -0.53163E-04 24632   0.333E-01    0.539E-02
DAV:  10    -0.578410552097E+01   -0.18092E-04   -0.28434E-05 18904   0.678E-02    0.200E-02
DAV:  11    -0.578411200929E+01   -0.64883E-05   -0.30600E-06 19272   0.339E-02    0.652E-03
DAV:  12    -0.578410856792E+01    0.34414E-05   -0.54766E-07 14088   0.997E-03    0.241E-03
DAV:  13    -0.578410970898E+01   -0.11411E-05   -0.50431E-08  9560   0.325E-03    0.890E-04
DAV:  14    -0.578411002143E+01   -0.31245E-06   -0.55191E-09  8736   0.103E-03
   1 F= -.57841100E+01 E0= -.57841100E+01  d E =0.000000E+00  mag=     0.6246
