<?xml version="1.0" encoding="ISO-8859-1"?>
<modeling>
 <generator>
  <i name="program" type="string">vasp </i>
  <i name="version" type="string">5.4.1  </i>
  <i name="subversion" type="string">05Feb16 (build Oct 12 2016 17:31:35) complex                          parallel </i>
  <i name="platform" type="string">IFC91_ompi </i>
  <i name="date" type="string">2020 09 07 </i>
  <i name="time" type="string">23:18:45 </i>
 </generator>
 <incar>
  <i type="string" name="SYSTEM"> phonon of Zr bcc - omiga</i>
  <i type="string" name="PREC">h</i>
  <i type="int" name="ISPIN">     2</i>
  <i type="int" name="IBRION">     6</i>
  <i name="EDIFF">      0.00000100</i>
  <i type="int" name="NSW">     1</i>
  <v name="MAGMOM">      1.00000000      1.00000000      1.00000000      1.00000000      1.00000000      1.00000000      1.00000000      1.00000000      1.00000000      1.00000000      1.00000000      1.00000000      1.00000000      1.00000000      1.00000000      1.00000000      1.00000000      1.00000000      1.00000000      1.00000000
      1.00000000      1.00000000      1.00000000      1.00000000      1.00000000      1.00000000      1.00000000      1.00000000      1.00000000      1.00000000      1.00000000      1.00000000      1.00000000      1.00000000      1.00000000      1.00000000      1.00000000      1.00000000      1.00000000      1.00000000
      1.00000000      1.00000000      1.00000000      1.00000000      1.00000000      1.00000000      1.00000000      1.00000000      1.00000000      1.00000000      1.00000000      1.00000000      1.00000000      1.00000000      1.00000000      1.00000000      1.00000000      1.00000000      1.00000000      1.00000000
      1.00000000      1.00000000      1.00000000      1.00000000</v>
  <i type="string" name="LREAL">Auto</i>
  <i type="int" name="ISMEAR">     1</i>
  <i type="int" name="NWRITE">     0</i>
  <v type="int" name="KPOINT_BSE">    -1     0     0     0</v>
 </incar>
 <kpoints>
  <generation param="Gamma">
   <v type="int" name="divisions">       3        3        3 </v>
   <v name="usershift">      0.00000000       0.00000000       0.00000000 </v>
   <v name="genvec1">      0.33333333       0.00000000       0.00000000 </v>
   <v name="genvec2">      0.00000000       0.33333333       0.00000000 </v>
   <v name="genvec3">      0.00000000       0.00000000       0.33333333 </v>
   <v name="shift">      0.00000000       0.00000000       0.00000000 </v>
  </generation>
  <varray name="kpointlist" >
   <v>       0.00000000       0.00000000       0.00000000 </v>
   <v>       0.33333333       0.00000000       0.00000000 </v>
   <v>       0.33333333       0.33333333       0.00000000 </v>
   <v>      -0.33333333       0.33333333       0.00000000 </v>
  </varray>
  <varray name="weights" >
   <v>       0.03703704 </v>
   <v>       0.29629630 </v>
   <v>       0.22222222 </v>
   <v>       0.44444444 </v>
  </varray>
 </kpoints>
 <parameters>
  <separator name="general" >
   <i type="string" name="SYSTEM">phonon of Zr bcc - omiga</i>
   <i type="logical" name="LCOMPAT"> F  </i>
  </separator>
  <separator name="electronic" >
   <i type="string" name="PREC">h</i>
   <i name="ENMAX">    459.93125000</i>
   <i name="ENAUG">    703.44300000</i>
   <i name="EDIFF">      0.00000100</i>
   <i type="int" name="IALGO">    38</i>
   <i type="int" name="IWAVPR">    11</i>
   <i type="int" name="NBANDS">   648</i>
   <i name="NELECT">   1024.00000000</i>
   <i type="int" name="TURBO">     0</i>
   <i type="int" name="IRESTART">     0</i>
   <i type="int" name="NREBOOT">     0</i>
   <i type="int" name="NMIN">     0</i>
   <i name="EREF">      0.00000000</i>
   <separator name="electronic smearing" >
    <i type="int" name="ISMEAR">     1</i>
    <i name="SIGMA">      0.20000000</i>
    <i name="KSPACING">      0.50000000</i>
    <i type="logical" name="KGAMMA"> T  </i>
   </separator>
   <separator name="electronic projectors" >
    <i type="logical" name="LREAL"> T  </i>
    <v name="ROPT">     -0.00040000</v>
    <i type="int" name="LMAXPAW">  -100</i>
    <i type="int" name="LMAXMIX">     2</i>
    <i type="logical" name="NLSPLINE"> F  </i>
   </separator>
   <separator name="electronic startup" >
    <i type="int" name="ISTART">     0</i>
    <i type="int" name="ICHARG">     2</i>
    <i type="int" name="INIWAV">     1</i>
   </separator>
   <separator name="electronic spin" >
    <i type="int" name="ISPIN">     2</i>
    <i type="logical" name="LNONCOLLINEAR"> F  </i>
    <v name="MAGMOM">      1.00000000      1.00000000      1.00000000      1.00000000      1.00000000      1.00000000      1.00000000      1.00000000      1.00000000      1.00000000      1.00000000      1.00000000      1.00000000      1.00000000      1.00000000      1.00000000      1.00000000      1.00000000      1.00000000      1.00000000
      1.00000000      1.00000000      1.00000000      1.00000000      1.00000000      1.00000000      1.00000000      1.00000000      1.00000000      1.00000000      1.00000000      1.00000000      1.00000000      1.00000000      1.00000000      1.00000000      1.00000000      1.00000000      1.00000000      1.00000000
      1.00000000      1.00000000      1.00000000      1.00000000      1.00000000      1.00000000      1.00000000      1.00000000      1.00000000      1.00000000      1.00000000      1.00000000      1.00000000      1.00000000      1.00000000      1.00000000      1.00000000      1.00000000      1.00000000      1.00000000
      1.00000000      1.00000000      1.00000000      1.00000000</v>
    <i name="NUPDOWN">     -1.00000000</i>
    <i type="logical" name="LSORBIT"> F  </i>
    <v name="SAXIS">      0.00000000      0.00000000      1.00000000</v>
    <i type="logical" name="LSPIRAL"> F  </i>
    <v name="QSPIRAL">      0.00000000      0.00000000      0.00000000</v>
    <i type="logical" name="LZEROZ"> F  </i>
   </separator>
   <separator name="electronic exchange-correlation" >
    <i type="logical" name="LASPH"> F  </i>
    <i type="logical" name="LMETAGGA"> F  </i>
   </separator>
   <separator name="electronic convergence" >
    <i type="int" name="NELM">    60</i>
    <i type="int" name="NELMDL">     0</i>
    <i type="int" name="NELMIN">     2</i>
    <i name="ENINI">    459.93125000</i>
    <separator name="electronic convergence detail" >
     <i type="logical" name="LDIAG"> T  </i>
     <i type="logical" name="LSUBROT"> F  </i>
     <i name="WEIMIN">      0.00100000</i>
     <i name="EBREAK">      0.00000000</i>
     <i name="DEPER">      0.30000000</i>
     <i type="int" name="NRMM">     4</i>
     <i name="TIME">      0.40000000</i>
    </separator>
   </separator>
   <separator name="electronic mixer" >
    <i name="AMIX">      0.40000000</i>
    <i name="BMIX">      1.00000000</i>
    <i name="AMIN">      0.10000000</i>
    <i name="AMIX_MAG">      1.60000000</i>
    <i name="BMIX_MAG">      1.00000000</i>
    <separator name="electronic mixer details" >
     <i type="int" name="IMIX">     4</i>
     <i type="logical" name="MIXFIRST"> F  </i>
     <i type="int" name="MAXMIX">   -45</i>
     <i name="WC">    100.00000000</i>
     <i type="int" name="INIMIX">     1</i>
     <i type="int" name="MIXPRE">     1</i>
     <i type="int" name="MREMOVE">     5</i>
    </separator>
   </separator>
   <separator name="electronic dipolcorrection" >
    <i type="logical" name="LDIPOL"> F  </i>
    <i type="logical" name="LMONO"> F  </i>
    <i type="int" name="IDIPOL">     0</i>
    <i name="EPSILON">      1.00000000</i>
    <v name="DIPOL">   -100.00000000   -100.00000000   -100.00000000</v>
    <i name="EFIELD">      0.00000000</i>
   </separator>
  </separator>
  <separator name="grids" >
   <i type="int" name="NGX">    70</i>
   <i type="int" name="NGY">    70</i>
   <i type="int" name="NGZ">    70</i>
   <i type="int" name="NGXF">   120</i>
   <i type="int" name="NGYF">   120</i>
   <i type="int" name="NGZF">   120</i>
   <i type="logical" name="ADDGRID"> F  </i>
  </separator>
  <separator name="ionic" >
   <i type="int" name="NSW">   805</i>
   <i type="int" name="IBRION">     6</i>
   <i type="int" name="ISIF">     2</i>
   <i name="PSTRESS">      0.00000000</i>
   <i name="EDIFFG">      0.00001000</i>
   <i type="int" name="NFREE">     2</i>
   <i name="POTIM">      0.50000000</i>
   <i name="SMASS">     -3.00000000</i>
   <i name="SCALEE">      1.00000000</i>
  </separator>
  <separator name="ionic md" >
   <i name="TEBEG">      0.00010000</i>
   <i name="TEEND">      0.00010000</i>
   <i type="int" name="NBLOCK">     1</i>
   <i type="int" name="KBLOCK">     1</i>
   <i type="int" name="NPACO">   256</i>
   <i name="APACO">     16.00000000</i>
  </separator>
  <separator name="symmetry" >
   <i type="int" name="ISYM">     2</i>
   <i name="SYMPREC">      0.00001000</i>
  </separator>
  <separator name="dos" >
   <i type="logical" name="LORBIT"> F  </i>
   <v name="RWIGS">     -1.00000000</v>
   <i type="int" name="NEDOS">   301</i>
   <i name="EMIN">     10.00000000</i>
   <i name="EMAX">    -10.00000000</i>
   <i name="EFERMI">      0.00000000</i>
  </separator>
  <separator name="writing" >
   <i type="int" name="NWRITE">     0</i>
   <i type="logical" name="LWAVE"> T  </i>
   <i type="logical" name="LCHARG"> T  </i>
   <i type="logical" name="LPARD"> F  </i>
   <i type="logical" name="LVTOT"> F  </i>
   <i type="logical" name="LVHAR"> F  </i>
   <i type="logical" name="LELF"> F  </i>
   <i type="logical" name="LOPTICS"> F  </i>
   <v name="STM">      0.00000000      0.00000000      0.00000000      0.00000000      0.00000000      0.00000000      0.00000000</v>
  </separator>
  <separator name="performance" >
   <i type="int" name="NPAR">     4</i>
   <i type="int" name="NSIM">     4</i>
   <i type="int" name="NBLK">    -1</i>
   <i type="logical" name="LPLANE"> T  </i>
   <i type="logical" name="LSCALAPACK"> T  </i>
   <i type="logical" name="LSCAAWARE"> F  </i>
   <i type="logical" name="LSCALU"> F  </i>
   <i type="logical" name="LASYNC"> F  </i>
   <i type="logical" name="LORBITALREAL"> F  </i>
  </separator>
  <separator name="miscellaneous" >
   <i type="int" name="IDIOT">     3</i>
   <i type="logical" name="LMUSIC"> F  </i>
   <v name="POMASS">     58.69000000</v>
   <v name="DARWINR">      0.00000000</v>
   <v name="DARWINV">      1.00000000</v>
   <i type="logical" name="LCORR"> T  </i>
  </separator>
  <i type="logical" name="GGA_COMPAT"> T  </i>
  <i type="logical" name="LBERRY"> F  </i>
  <i type="int" name="ICORELEVEL">     0</i>
  <i type="logical" name="LDAU"> F  </i>
  <i type="int" name="I_CONSTRAINED_M">     0</i>
  <separator name="electronic exchange-correlation" >
   <i type="string" name="GGA">--</i>
   <i type="int" name="VOSKOWN">     0</i>
   <i type="logical" name="LHFCALC"> F  </i>
   <i type="string" name="PRECFOCK"></i>
   <i type="logical" name="LSYMGRAD"> F  </i>
   <i type="logical" name="LHFONE"> F  </i>
   <i type="logical" name="LRHFCALC"> F  </i>
   <i type="logical" name="LTHOMAS"> F  </i>
   <i type="logical" name="LMODELHF"> F  </i>
   <i name="ENCUT4O">     -1.00000000</i>
   <i type="int" name="EXXOEP">     0</i>
   <i type="int" name="FOURORBIT">     0</i>
   <i name="AEXX">      0.00000000</i>
   <i name="HFALPHA">      0.00000000</i>
   <i name="MCALPHA">      0.00000000</i>
   <i name="ALDAX">      1.00000000</i>
   <i name="AGGAX">      1.00000000</i>
   <i name="ALDAC">      1.00000000</i>
   <i name="AGGAC">      1.00000000</i>
   <i type="int" name="NKREDX">     1</i>
   <i type="int" name="NKREDY">     1</i>
   <i type="int" name="NKREDZ">     1</i>
   <i type="logical" name="SHIFTRED"> F  </i>
   <i type="logical" name="ODDONLY"> F  </i>
   <i type="logical" name="EVENONLY"> F  </i>
   <i type="int" name="LMAXFOCK">     0</i>
   <i type="int" name="NMAXFOCKAE">     0</i>
   <i type="logical" name="LFOCKAEDFT"> F  </i>
   <i name="HFSCREEN">      0.00000000</i>
   <i name="HFSCREENC">      0.00000000</i>
   <i type="int" name="NBANDSGWLOW">     0</i>
  </separator>
  <separator name="vdW DFT" >
   <i type="logical" name="LUSE_VDW"> F  </i>
   <i name="Zab_VDW">     -0.84910000</i>
   <i name="PARAM1">      0.12340000</i>
   <i name="PARAM2">      1.00000000</i>
   <i name="PARAM3">      0.00000000</i>
  </separator>
  <separator name="model GW" >
   <i type="int" name="MODEL_GW">     0</i>
   <i name="MODEL_EPS0">      6.57004922</i>
   <i name="MODEL_ALPHA">      1.00000000</i>
  </separator>
  <separator name="linear response parameters" >
   <i type="logical" name="LEPSILON"> F  </i>
   <i type="logical" name="LRPA"> F  </i>
   <i type="logical" name="LNABLA"> F  </i>
   <i type="logical" name="LVEL"> F  </i>
   <i type="int" name="KINTER">     0</i>
   <i name="CSHIFT">      0.10000000</i>
   <i name="OMEGAMAX">     -1.00000000</i>
   <i name="DEG_THRESHOLD">      0.00200000</i>
  </separator>
  <separator name="orbital magnetization" >
   <i type="logical" name="NUCIND"> F  </i>
   <v name="MAGPOS">      0.00000000      0.00000000      0.00000000</v>
   <i type="logical" name="LNICSALL"> T  </i>
   <i type="logical" name="ORBITALMAG"> F  </i>
   <i type="logical" name="LMAGBLOCH"> F  </i>
   <i type="logical" name="LCHIMAG"> F  </i>
   <i type="logical" name="LGAUGE"> T  </i>
   <i type="int" name="MAGATOM">     0</i>
   <v name="MAGDIPOL">      0.00000000      0.00000000      0.00000000</v>
   <v name="AVECCONST">      0.00000000      0.00000000      0.00000000</v>
  </separator>
  <separator name="response functions" >
   <i type="logical" name="LADDER"> F  </i>
   <i type="logical" name="LFXC"> F  </i>
   <i type="logical" name="LHARTREE"> T  </i>
   <i type="int" name="IBSE">     0</i>
   <v type="int" name="KPOINT">    -1     0     0     0</v>
   <i type="logical" name="LTCTE"> F  </i>
   <i type="logical" name="LTETE"> F  </i>
   <i type="logical" name="LTRIPLET"> F  </i>
   <i type="logical" name="LFXCEPS"> F  </i>
   <i type="logical" name="LFXHEG"> F  </i>
   <i type="int" name="NATURALO">     0</i>
   <i type="logical" name="L2ORDER"> F  </i>
   <i type="logical" name="LUSEW"> F  </i>
   <i name="ENCUTGW">     -2.00000000</i>
   <i name="ENCUTGWSOFT">     -2.00000000</i>
   <i name="ENCUTLF">     -1.00000000</i>
   <i type="int" name="LMAXMP2">    -1</i>
   <i name="SCISSOR">      0.00000000</i>
   <i type="int" name="NOMEGA">     0</i>
   <i type="int" name="NOMEGAR">     0</i>
   <i type="int" name="NBANDSGW">    -1</i>
   <i type="int" name="NBANDSO">    -1</i>
   <i type="int" name="NBANDSV">    -1</i>
   <i type="int" name="NELM">     1</i>
   <i type="int" name="NELMHF">     1</i>
   <i type="int" name="DIM">     3</i>
   <i type="int" name="ANTIRES">     0</i>
   <i name="OMEGAMAX">    -30.00000000</i>
   <i name="OMEGAMIN">    -30.00000000</i>
   <i name="OMEGATL">   -200.00000000</i>
   <i type="int" name="OMEGAGRID">     0</i>
   <i name="CSHIFT">     -0.10000000</i>
   <i type="logical" name="SELFENERGY"> F  </i>
   <i type="logical" name="LSPECTRAL"> F  </i>
   <i type="logical" name="LSPECTRALGW"> F  </i>
   <i type="logical" name="LSINGLES"> F  </i>
   <i type="logical" name="LFERMIGW"> F  </i>
   <i type="logical" name="ODDONLYGW"> F  </i>
   <i type="logical" name="EVENONLYGW"> F  </i>
   <i type="int" name="NKREDLFX">     1</i>
   <i type="int" name="NKREDLFY">     1</i>
   <i type="int" name="NKREDLFZ">     1</i>
   <i type="int" name="MAXMEM">  1800</i>
   <i type="int" name="TELESCOPE">     0</i>
   <i type="int" name="TAUPAR">     1</i>
   <i type="int" name="OMEGAPAR">    -1</i>
   <i name="LAMBDA">      1.00000000</i>
  </separator>
  <separator name="External order field" >
   <i name="OFIELD_KAPPA">      0.00000000</i>
   <v name="OFIELD_K">      0.00000000      0.00000000      0.00000000</v>
   <i name="OFIELD_Q6_NEAR">      0.00000000</i>
   <i name="OFIELD_Q6_FAR">      0.00000000</i>
   <i name="OFIELD_A">      0.00000000</i>
  </separator>
 </parameters>
 <atominfo>
  <atoms>      64 </atoms>
  <types>       1 </types>
  <array name="atoms" >
   <dimension dim="1">ion</dimension>
   <field type="string">element</field>
   <field type="int">atomtype</field>
   <set>
    <rc><c>Ni</c><c>   1</c></rc>
    <rc><c>Ni</c><c>   1</c></rc>
    <rc><c>Ni</c><c>   1</c></rc>
    <rc><c>Ni</c><c>   1</c></rc>
    <rc><c>Ni</c><c>   1</c></rc>
    <rc><c>Ni</c><c>   1</c></rc>
    <rc><c>Ni</c><c>   1</c></rc>
    <rc><c>Ni</c><c>   1</c></rc>
    <rc><c>Ni</c><c>   1</c></rc>
    <rc><c>Ni</c><c>   1</c></rc>
    <rc><c>Ni</c><c>   1</c></rc>
    <rc><c>Ni</c><c>   1</c></rc>
    <rc><c>Ni</c><c>   1</c></rc>
    <rc><c>Ni</c><c>   1</c></rc>
    <rc><c>Ni</c><c>   1</c></rc>
    <rc><c>Ni</c><c>   1</c></rc>
    <rc><c>Ni</c><c>   1</c></rc>
    <rc><c>Ni</c><c>   1</c></rc>
    <rc><c>Ni</c><c>   1</c></rc>
    <rc><c>Ni</c><c>   1</c></rc>
    <rc><c>Ni</c><c>   1</c></rc>
    <rc><c>Ni</c><c>   1</c></rc>
    <rc><c>Ni</c><c>   1</c></rc>
    <rc><c>Ni</c><c>   1</c></rc>
    <rc><c>Ni</c><c>   1</c></rc>
    <rc><c>Ni</c><c>   1</c></rc>
    <rc><c>Ni</c><c>   1</c></rc>
    <rc><c>Ni</c><c>   1</c></rc>
    <rc><c>Ni</c><c>   1</c></rc>
    <rc><c>Ni</c><c>   1</c></rc>
    <rc><c>Ni</c><c>   1</c></rc>
    <rc><c>Ni</c><c>   1</c></rc>
    <rc><c>Ni</c><c>   1</c></rc>
    <rc><c>Ni</c><c>   1</c></rc>
    <rc><c>Ni</c><c>   1</c></rc>
    <rc><c>Ni</c><c>   1</c></rc>
    <rc><c>Ni</c><c>   1</c></rc>
    <rc><c>Ni</c><c>   1</c></rc>
    <rc><c>Ni</c><c>   1</c></rc>
    <rc><c>Ni</c><c>   1</c></rc>
    <rc><c>Ni</c><c>   1</c></rc>
    <rc><c>Ni</c><c>   1</c></rc>
    <rc><c>Ni</c><c>   1</c></rc>
    <rc><c>Ni</c><c>   1</c></rc>
    <rc><c>Ni</c><c>   1</c></rc>
    <rc><c>Ni</c><c>   1</c></rc>
    <rc><c>Ni</c><c>   1</c></rc>
    <rc><c>Ni</c><c>   1</c></rc>
    <rc><c>Ni</c><c>   1</c></rc>
    <rc><c>Ni</c><c>   1</c></rc>
    <rc><c>Ni</c><c>   1</c></rc>
    <rc><c>Ni</c><c>   1</c></rc>
    <rc><c>Ni</c><c>   1</c></rc>
    <rc><c>Ni</c><c>   1</c></rc>
    <rc><c>Ni</c><c>   1</c></rc>
    <rc><c>Ni</c><c>   1</c></rc>
    <rc><c>Ni</c><c>   1</c></rc>
    <rc><c>Ni</c><c>   1</c></rc>
    <rc><c>Ni</c><c>   1</c></rc>
    <rc><c>Ni</c><c>   1</c></rc>
    <rc><c>Ni</c><c>   1</c></rc>
    <rc><c>Ni</c><c>   1</c></rc>
    <rc><c>Ni</c><c>   1</c></rc>
    <rc><c>Ni</c><c>   1</c></rc>
   </set>
  </array>
  <array name="atomtypes" >
   <dimension dim="1">type</dimension>
   <field type="int">atomspertype</field>
   <field type="string">element</field>
   <field>mass</field>
   <field>valence</field>
   <field type="string">pseudopotential</field>
   <set>
    <rc><c>  64</c><c>Ni</c><c>     58.69000000</c><c>     16.00000000</c><c> PAW_PBE Ni_pv 06Sep2000                </c></rc>
   </set>
  </array>
 </atominfo>
 <structure name="initialpos" >
  <crystal>
   <varray name="basis" >
    <v>       0.00000000       7.05000000       7.05000000 </v>
    <v>       7.05000000       0.00000000       7.05000000 </v>
    <v>       7.05000000       7.05000000       0.00000000 </v>
   </varray>
   <i name="volume">    700.80525000 </i>
   <varray name="rec_basis" >
    <v>      -0.07092199       0.07092199       0.07092199 </v>
    <v>       0.07092199      -0.07092199       0.07092199 </v>
    <v>       0.07092199       0.07092199      -0.07092199 </v>
   </varray>
  </crystal>
  <varray name="positions" >
   <v>       0.00000000       0.00000000       0.00000000 </v>
   <v>       0.00000000       0.00000000       0.25000000 </v>
   <v>       0.00000000       0.00000000       0.50000000 </v>
   <v>       0.00000000       0.00000000       0.75000000 </v>
   <v>       0.00000000       0.25000000       0.00000000 </v>
   <v>       0.00000000       0.25000000       0.25000000 </v>
   <v>       0.00000000       0.25000000       0.50000000 </v>
   <v>       0.00000000       0.25000000       0.75000000 </v>
   <v>       0.00000000       0.50000000       0.00000000 </v>
   <v>       0.00000000       0.50000000       0.25000000 </v>
   <v>       0.00000000       0.50000000       0.50000000 </v>
   <v>       0.00000000       0.50000000       0.75000000 </v>
   <v>       0.00000000       0.75000000       0.00000000 </v>
   <v>       0.00000000       0.75000000       0.25000000 </v>
   <v>       0.00000000       0.75000000       0.50000000 </v>
   <v>       0.00000000       0.75000000       0.75000000 </v>
   <v>       0.25000000       0.00000000       0.00000000 </v>
   <v>       0.25000000       0.00000000       0.25000000 </v>
   <v>       0.25000000       0.00000000       0.50000000 </v>
   <v>       0.25000000       0.00000000       0.75000000 </v>
   <v>       0.25000000       0.25000000       0.00000000 </v>
   <v>       0.25000000       0.25000000       0.25000000 </v>
   <v>       0.25000000       0.25000000       0.50000000 </v>
   <v>       0.25000000       0.25000000       0.75000000 </v>
   <v>       0.25000000       0.50000000       0.00000000 </v>
   <v>       0.25000000       0.50000000       0.25000000 </v>
   <v>       0.25000000       0.50000000       0.50000000 </v>
   <v>       0.25000000       0.50000000       0.75000000 </v>
   <v>       0.25000000       0.75000000       0.00000000 </v>
   <v>       0.25000000       0.75000000       0.25000000 </v>
   <v>       0.25000000       0.75000000       0.50000000 </v>
   <v>       0.25000000       0.75000000       0.75000000 </v>
   <v>       0.50000000       0.00000000       0.00000000 </v>
   <v>       0.50000000       0.00000000       0.25000000 </v>
   <v>       0.50000000       0.00000000       0.50000000 </v>
   <v>       0.50000000       0.00000000       0.75000000 </v>
   <v>       0.50000000       0.25000000       0.00000000 </v>
   <v>       0.50000000       0.25000000       0.25000000 </v>
   <v>       0.50000000       0.25000000       0.50000000 </v>
   <v>       0.50000000       0.25000000       0.75000000 </v>
   <v>       0.50000000       0.50000000       0.00000000 </v>
   <v>       0.50000000       0.50000000       0.25000000 </v>
   <v>       0.50000000       0.50000000       0.50000000 </v>
   <v>       0.50000000       0.50000000       0.75000000 </v>
   <v>       0.50000000       0.75000000       0.00000000 </v>
   <v>       0.50000000       0.75000000       0.25000000 </v>
   <v>       0.50000000       0.75000000       0.50000000 </v>
   <v>       0.50000000       0.75000000       0.75000000 </v>
   <v>       0.75000000       0.00000000       0.00000000 </v>
   <v>       0.75000000       0.00000000       0.25000000 </v>
   <v>       0.75000000       0.00000000       0.50000000 </v>
   <v>       0.75000000       0.00000000       0.75000000 </v>
   <v>       0.75000000       0.25000000       0.00000000 </v>
   <v>       0.75000000       0.25000000       0.25000000 </v>
   <v>       0.75000000       0.25000000       0.50000000 </v>
   <v>       0.75000000       0.25000000       0.75000000 </v>
   <v>       0.75000000       0.50000000       0.00000000 </v>
   <v>       0.75000000       0.50000000       0.25000000 </v>
   <v>       0.75000000       0.50000000       0.50000000 </v>
   <v>       0.75000000       0.50000000       0.75000000 </v>
   <v>       0.75000000       0.75000000       0.00000000 </v>
   <v>       0.75000000       0.75000000       0.25000000 </v>
   <v>       0.75000000       0.75000000       0.50000000 </v>
   <v>       0.75000000       0.75000000       0.75000000 </v>
  </varray>
 </structure>
 <calculation>
  <scstep>
   <time name="dav">  146.17  146.05</time>
   <time name="total">  146.78  146.66</time>
   <energy>
    <i name="alphaZ">   9846.09864404 </i>
    <i name="ewald">-153431.04596335 </i>
    <i name="hartreedc"> -61842.66455301 </i>
    <i name="XCdc">   5718.00510425 </i>
    <i name="pawpsdc"> 172361.15642774 </i>
    <i name="pawaedc">-181272.45834873 </i>
    <i name="eentropy">      0.01026952 </i>
    <i name="bandstr">    590.30333549 </i>
    <i name="atom"> 224016.65216645 </i>
    <i name="e_fr_energy">  15986.05708240 </i>
    <i name="e_wo_entrp">  15986.04681288 </i>
    <i name="e_0_energy">  15986.05365922 </i>
   </energy>
  </scstep>
  <scstep>
   <time name="dav">  135.16  135.05</time>
   <time name="total">  135.16  135.06</time>
   <energy>
    <i name="e_fr_energy">   1152.23058280 </i>
    <i name="e_wo_entrp">   1152.24062560 </i>
    <i name="e_0_energy">   1152.23393040 </i>
   </energy>
  </scstep>
  <scstep>
   <time name="dav">  136.46  136.35</time>
   <time name="total">  136.46  136.36</time>
   <energy>
    <i name="e_fr_energy">   -343.05248854 </i>
    <i name="e_wo_entrp">   -343.17567213 </i>
    <i name="e_0_energy">   -343.09354974 </i>
   </energy>
  </scstep>
  <scstep>
   <time name="dav">  142.32  142.21</time>
   <time name="total">  142.33  142.21</time>
   <energy>
    <i name="e_fr_energy">   -431.87171960 </i>
    <i name="e_wo_entrp">   -432.03564896 </i>
    <i name="e_0_energy">   -431.92636272 </i>
   </energy>
  </scstep>
  <scstep>
   <time name="dav">  142.08  141.96</time>
   <time name="total">  149.65  149.53</time>
   <energy>
    <i name="e_fr_energy">   -433.37949902 </i>
    <i name="e_wo_entrp">   -433.54360506 </i>
    <i name="e_0_energy">   -433.43420103 </i>
   </energy>
  </scstep>
  <scstep>
   <time name="dav">  304.78  304.53</time>
   <time name="total">  319.80  319.54</time>
   <energy>
    <i name="e_fr_energy">   -398.06494345 </i>
    <i name="e_wo_entrp">   -397.72731653 </i>
    <i name="e_0_energy">   -397.95240114 </i>
   </energy>
  </scstep>
  <scstep>
   <time name="dav">  326.46  326.19</time>
   <time name="total">  342.08  341.81</time>
   <energy>
    <i name="e_fr_energy">   -370.39965131 </i>
    <i name="e_wo_entrp">   -370.34789170 </i>
    <i name="e_0_energy">   -370.38239810 </i>
   </energy>
  </scstep>
  <scstep>
   <time name="dav">  332.51  332.23</time>
   <time name="total">  348.17  347.88</time>
   <energy>
    <i name="e_fr_energy">   -370.35794779 </i>
    <i name="e_wo_entrp">   -370.28958804 </i>
    <i name="e_0_energy">   -370.33516121 </i>
   </energy>
  </scstep>
  <scstep>
   <time name="dav">  347.27  346.98</time>
   <time name="total">  363.26  362.96</time>
   <energy>
    <i name="e_fr_energy">   -370.21771755 </i>
    <i name="e_wo_entrp">   -370.13098037 </i>
    <i name="e_0_energy">   -370.18880516 </i>
   </energy>
  </scstep>
  <scstep>
   <time name="dav">  344.42  344.13</time>
   <time name="total">  360.32  360.02</time>
   <energy>
    <i name="e_fr_energy">   -370.22256597 </i>
    <i name="e_wo_entrp">   -370.13675251 </i>
    <i name="e_0_energy">   -370.19396148 </i>
   </energy>
  </scstep>
  <scstep>
   <time name="dav">  329.05  328.78</time>
   <time name="total">  344.97  344.68</time>
   <energy>
    <i name="e_fr_energy">   -370.22590341 </i>
    <i name="e_wo_entrp">   -370.14169035 </i>
    <i name="e_0_energy">   -370.19783239 </i>
   </energy>
  </scstep>
  <scstep>
   <time name="dav">  324.07  323.81</time>
   <time name="total">  340.18  339.91</time>
   <energy>
    <i name="e_fr_energy">   -370.22593568 </i>
    <i name="e_wo_entrp">   -370.14023331 </i>
    <i name="e_0_energy">   -370.19736823 </i>
   </energy>
  </scstep>
  <scstep>
   <time name="dav">  314.26  314.00</time>
   <time name="total">  329.95  329.68</time>
   <energy>
    <i name="e_fr_energy">   -370.22594397 </i>
    <i name="e_wo_entrp">   -370.13979296 </i>
    <i name="e_0_energy">   -370.19722697 </i>
   </energy>
  </scstep>
  <scstep>
   <time name="dav">  284.70  284.47</time>
   <time name="total">  300.39  300.14</time>
   <energy>
    <i name="e_fr_energy">   -370.22592251 </i>
    <i name="e_wo_entrp">   -370.13969080 </i>
    <i name="e_0_energy">   -370.19717861 </i>
   </energy>
  </scstep>
  <scstep>
   <time name="dav">  197.94  197.77</time>
   <time name="total">  213.71  213.54</time>
   <energy>
    <i name="e_fr_energy">   -370.22591621 </i>
    <i name="e_wo_entrp">   -370.13974786 </i>
    <i name="e_0_energy">   -370.19719343 </i>
   </energy>
  </scstep>
  <scstep>
   <time name="dav">  198.49  198.33</time>
   <time name="total">  199.73  199.58</time>
   <energy>
    <i name="alphaZ">   9846.09864404 </i>
    <i name="ewald">-153431.04596335 </i>
    <i name="hartreedc"> -59477.26847960 </i>
    <i name="XCdc">   5628.11442351 </i>
    <i name="pawpsdc"> 171960.49483871 </i>
    <i name="pawaedc">-181025.06678424 </i>
    <i name="eentropy">     -0.08612874 </i>
    <i name="bandstr"> -17888.11863294 </i>
    <i name="atom"> 224016.65216645 </i>
    <i name="e_fr_energy">   -370.22591617 </i>
    <i name="e_wo_entrp">   -370.13978743 </i>
    <i name="e_0_energy">   -370.19720659 </i>
   </energy>
  </scstep>
  <structure>
   <crystal>
    <varray name="basis" >
     <v>       0.00000000       7.05000000       7.05000000 </v>
     <v>       7.05000000       0.00000000       7.05000000 </v>
     <v>       7.05000000       7.05000000       0.00000000 </v>
    </varray>
    <i name="volume">    700.80525000 </i>
    <varray name="rec_basis" >
     <v>      -0.07092199       0.07092199       0.07092199 </v>
     <v>       0.07092199      -0.07092199       0.07092199 </v>
     <v>       0.07092199       0.07092199      -0.07092199 </v>
    </varray>
   </crystal>
   <varray name="positions" >
    <v>       0.00000000       0.00000000       0.00000000 </v>
    <v>       0.00000000       0.00000000       0.25000000 </v>
    <v>       0.00000000       0.00000000       0.50000000 </v>
    <v>       0.00000000       0.00000000       0.75000000 </v>
    <v>       0.00000000       0.25000000       0.00000000 </v>
    <v>       0.00000000       0.25000000       0.25000000 </v>
    <v>       0.00000000       0.25000000       0.50000000 </v>
    <v>       0.00000000       0.25000000       0.75000000 </v>
    <v>       0.00000000       0.50000000       0.00000000 </v>
    <v>       0.00000000       0.50000000       0.25000000 </v>
    <v>       0.00000000       0.50000000       0.50000000 </v>
    <v>       0.00000000       0.50000000       0.75000000 </v>
    <v>       0.00000000       0.75000000       0.00000000 </v>
    <v>       0.00000000       0.75000000       0.25000000 </v>
    <v>       0.00000000       0.75000000       0.50000000 </v>
    <v>       0.00000000       0.75000000       0.75000000 </v>
    <v>       0.25000000       0.00000000       0.00000000 </v>
    <v>       0.25000000       0.00000000       0.25000000 </v>
    <v>       0.25000000       0.00000000       0.50000000 </v>
    <v>       0.25000000       0.00000000       0.75000000 </v>
    <v>       0.25000000       0.25000000       0.00000000 </v>
    <v>       0.25000000       0.25000000       0.25000000 </v>
    <v>       0.25000000       0.25000000       0.50000000 </v>
    <v>       0.25000000       0.25000000       0.75000000 </v>
    <v>       0.25000000       0.50000000       0.00000000 </v>
    <v>       0.25000000       0.50000000       0.25000000 </v>
    <v>       0.25000000       0.50000000       0.50000000 </v>
    <v>       0.25000000       0.50000000       0.75000000 </v>
    <v>       0.25000000       0.75000000       0.00000000 </v>
    <v>       0.25000000       0.75000000       0.25000000 </v>
    <v>       0.25000000       0.75000000       0.50000000 </v>
    <v>       0.25000000       0.75000000       0.75000000 </v>
    <v>       0.50000000       0.00000000       0.00000000 </v>
    <v>       0.50000000       0.00000000       0.25000000 </v>
    <v>       0.50000000       0.00000000       0.50000000 </v>
    <v>       0.50000000       0.00000000       0.75000000 </v>
    <v>       0.50000000       0.25000000       0.00000000 </v>
    <v>       0.50000000       0.25000000       0.25000000 </v>
    <v>       0.50000000       0.25000000       0.50000000 </v>
    <v>       0.50000000       0.25000000       0.75000000 </v>
    <v>       0.50000000       0.50000000       0.00000000 </v>
    <v>       0.50000000       0.50000000       0.25000000 </v>
    <v>       0.50000000       0.50000000       0.50000000 </v>
    <v>       0.50000000       0.50000000       0.75000000 </v>
    <v>       0.50000000       0.75000000       0.00000000 </v>
    <v>       0.50000000       0.75000000       0.25000000 </v>
    <v>       0.50000000       0.75000000       0.50000000 </v>
    <v>       0.50000000       0.75000000       0.75000000 </v>
    <v>       0.75000000       0.00000000       0.00000000 </v>
    <v>       0.75000000       0.00000000       0.25000000 </v>
    <v>       0.75000000       0.00000000       0.50000000 </v>
    <v>       0.75000000       0.00000000       0.75000000 </v>
    <v>       0.75000000       0.25000000       0.00000000 </v>
    <v>       0.75000000       0.25000000       0.25000000 </v>
    <v>       0.75000000       0.25000000       0.50000000 </v>
    <v>       0.75000000       0.25000000       0.75000000 </v>
    <v>       0.75000000       0.50000000       0.00000000 </v>
    <v>       0.75000000       0.50000000       0.25000000 </v>
    <v>       0.75000000       0.50000000       0.50000000 </v>
    <v>       0.75000000       0.50000000       0.75000000 </v>
    <v>       0.75000000       0.75000000       0.00000000 </v>
    <v>       0.75000000       0.75000000       0.25000000 </v>
    <v>       0.75000000       0.75000000       0.50000000 </v>
    <v>       0.75000000       0.75000000       0.75000000 </v>
   </varray>
  </structure>
  <varray name="forces" >
   <v>      -0.00000000      -0.00000000      -0.00000000 </v>
   <v>      -0.00000000       0.00000000       0.00000000 </v>
   <v>       0.00000000       0.00000000       0.00000000 </v>
   <v>       0.00000000      -0.00000000      -0.00000000 </v>
   <v>       0.00000000      -0.00000000      -0.00000000 </v>
   <v>      -0.00000000      -0.00000000       0.00000000 </v>
   <v>       0.00000000       0.00000000      -0.00000000 </v>
   <v>       0.00000000      -0.00000000       0.00000000 </v>
   <v>       0.00000000      -0.00000000      -0.00000000 </v>
   <v>      -0.00000000       0.00000000       0.00000000 </v>
   <v>       0.00000000       0.00000000      -0.00000000 </v>
   <v>       0.00000000      -0.00000000      -0.00000000 </v>
   <v>       0.00000000      -0.00000000      -0.00000000 </v>
   <v>      -0.00000000       0.00000000      -0.00000000 </v>
   <v>       0.00000000      -0.00000000      -0.00000000 </v>
   <v>       0.00000000      -0.00000000       0.00000000 </v>
   <v>      -0.00000000      -0.00000000      -0.00000000 </v>
   <v>      -0.00000000       0.00000000       0.00000000 </v>
   <v>       0.00000000       0.00000000      -0.00000000 </v>
   <v>      -0.00000000      -0.00000000      -0.00000000 </v>
   <v>      -0.00000000      -0.00000000       0.00000000 </v>
   <v>       0.00000000       0.00000000       0.00000000 </v>
   <v>       0.00000000       0.00000000      -0.00000000 </v>
   <v>      -0.00000000      -0.00000000       0.00000000 </v>
   <v>      -0.00000000      -0.00000000      -0.00000000 </v>
   <v>       0.00000000      -0.00000000       0.00000000 </v>
   <v>      -0.00000000       0.00000000       0.00000000 </v>
   <v>       0.00000000       0.00000000       0.00000000 </v>
   <v>      -0.00000000      -0.00000000      -0.00000000 </v>
   <v>      -0.00000000      -0.00000000       0.00000000 </v>
   <v>       0.00000000      -0.00000000      -0.00000000 </v>
   <v>       0.00000000       0.00000000      -0.00000000 </v>
   <v>      -0.00000000       0.00000000      -0.00000000 </v>
   <v>      -0.00000000       0.00000000       0.00000000 </v>
   <v>       0.00000000       0.00000000      -0.00000000 </v>
   <v>       0.00000000      -0.00000000       0.00000000 </v>
   <v>       0.00000000      -0.00000000      -0.00000000 </v>
   <v>       0.00000000      -0.00000000       0.00000000 </v>
   <v>       0.00000000       0.00000000      -0.00000000 </v>
   <v>       0.00000000       0.00000000       0.00000000 </v>
   <v>       0.00000000       0.00000000      -0.00000000 </v>
   <v>      -0.00000000      -0.00000000       0.00000000 </v>
   <v>      -0.00000000       0.00000000      -0.00000000 </v>
   <v>      -0.00000000      -0.00000000       0.00000000 </v>
   <v>       0.00000000      -0.00000000      -0.00000000 </v>
   <v>      -0.00000000      -0.00000000       0.00000000 </v>
   <v>       0.00000000      -0.00000000       0.00000000 </v>
   <v>       0.00000000       0.00000000       0.00000000 </v>
   <v>      -0.00000000      -0.00000000      -0.00000000 </v>
   <v>      -0.00000000       0.00000000       0.00000000 </v>
   <v>       0.00000000       0.00000000       0.00000000 </v>
   <v>      -0.00000000      -0.00000000      -0.00000000 </v>
   <v>      -0.00000000      -0.00000000      -0.00000000 </v>
   <v>       0.00000000      -0.00000000       0.00000000 </v>
   <v>      -0.00000000       0.00000000       0.00000000 </v>
   <v>      -0.00000000       0.00000000       0.00000000 </v>
   <v>      -0.00000000       0.00000000      -0.00000000 </v>
   <v>      -0.00000000      -0.00000000       0.00000000 </v>
   <v>      -0.00000000       0.00000000       0.00000000 </v>
   <v>      -0.00000000      -0.00000000       0.00000000 </v>
   <v>       0.00000000       0.00000000       0.00000000 </v>
   <v>      -0.00000000      -0.00000000       0.00000000 </v>
   <v>      -0.00000000      -0.00000000      -0.00000000 </v>
   <v>       0.00000000       0.00000000       0.00000000 </v>
  </varray>
  <varray name="stress" >
   <v>     -11.07326165       0.00000000      -0.00000000 </v>
   <v>       0.00000000     -11.07326165       0.00000000 </v>
   <v>       0.00000000       0.00000000     -11.07326165 </v>
  </varray>
  <energy>
   <i name="e_fr_energy">   -370.22591617 </i>
   <i name="e_wo_entrp">   -370.19720659 </i>
   <i name="e_0_energy">     -0.08612874 </i>
  </energy>
  <kpoints>
   <generation param="Gamma">
    <v type="int" name="divisions">       3        3        3 </v>
    <v name="usershift">      0.00000000       0.00000000       0.00000000 </v>
    <v name="genvec1">      0.33333333       0.00000000       0.00000000 </v>
    <v name="genvec2">      0.00000000       0.33333333       0.00000000 </v>
    <v name="genvec3">      0.00000000       0.00000000       0.33333333 </v>
    <v name="shift">      0.00000000       0.00000000       0.00000000 </v>
   </generation>
   <varray name="kpointlist" >
    <v>       0.00000000       0.00000000       0.00000000 </v>
    <v>       0.33333333       0.00000000       0.00000000 </v>
    <v>       0.33333333       0.33333333       0.00000000 </v>
    <v>      -0.33333333       0.33333333       0.00000000 </v>
    <v>       0.00000000       0.33333333       0.33333333 </v>
    <v>      -0.33333333       0.33333333       0.33333333 </v>
   </varray>
   <varray name="weights" >
    <v>       0.03703704 </v>
    <v>       0.29629630 </v>
    <v>       0.14814815 </v>
    <v>       0.29629630 </v>
    <v>       0.07407407 </v>
    <v>       0.14814815 </v>
   </varray>
  </kpoints>
  <time name="totalsc"> 4519.26 4516.35</time>
 </calculation>
 <calculation>
  <scstep>
   <time name="dav">  588.33  587.85</time>
   <time name="total">  609.15  608.65</time>
   <energy>
    <i name="alphaZ">   9846.09864404 </i>
    <i name="ewald">-153430.88980221 </i>
    <i name="hartreedc"> -59477.42166666 </i>
    <i name="XCdc">   5628.11546652 </i>
    <i name="pawpsdc"> 171960.29730656 </i>
    <i name="pawaedc">-181024.87508591 </i>
    <i name="eentropy">     -0.08606323 </i>
    <i name="bandstr"> -17888.02046714 </i>
    <i name="atom"> 224016.65216645 </i>
    <i name="e_fr_energy">   -370.12950159 </i>
    <i name="e_wo_entrp">   -370.04343836 </i>
    <i name="e_0_energy">   -370.10081385 </i>
   </energy>
  </scstep>
  <scstep>
   <time name="dav">  492.39  491.99</time>
   <time name="total">  512.86  512.44</time>
   <energy>
    <i name="e_fr_energy">   -370.22466883 </i>
    <i name="e_wo_entrp">   -370.13854209 </i>
    <i name="e_0_energy">   -370.19595991 </i>
   </energy>
  </scstep>
  <scstep>
   <time name="dav">  571.12  570.68</time>
   <time name="total">  591.82  591.37</time>
   <energy>
    <i name="e_fr_energy">   -370.22857074 </i>
    <i name="e_wo_entrp">   -370.14227978 </i>
    <i name="e_0_energy">   -370.19980709 </i>
   </energy>
  </scstep>
  <scstep>
   <time name="dav">  542.12  541.67</time>
   <time name="total">  562.62  562.15</time>
   <energy>
    <i name="e_fr_energy">   -370.22632078 </i>
    <i name="e_wo_entrp">   -370.14018393 </i>
    <i name="e_0_energy">   -370.19760849 </i>
   </energy>
  </scstep>
  <scstep>
   <time name="dav">  521.91  521.48</time>
   <time name="total">  542.59  542.14</time>
   <energy>
    <i name="e_fr_energy">   -370.22514145 </i>
    <i name="e_wo_entrp">   -370.13902018 </i>
    <i name="e_0_energy">   -370.19643436 </i>
   </energy>
  </scstep>
  <scstep>
   <time name="dav">  589.97  589.48</time>
   <time name="total">  610.51  610.01</time>
   <energy>
    <i name="e_fr_energy">   -370.22512729 </i>
    <i name="e_wo_entrp">   -370.13901017 </i>
    <i name="e_0_energy">   -370.19642159 </i>
   </energy>
  </scstep>
  <scstep>
   <time name="dav">  510.07  509.65</time>
   <time name="total">  530.58  530.14</time>
   <energy>
    <i name="e_fr_energy">   -370.22506127 </i>
    <i name="e_wo_entrp">   -370.13895367 </i>
    <i name="e_0_energy">   -370.19635874 </i>
   </energy>
  </scstep>
  <scstep>
   <time name="dav">  520.66  520.23</time>
   <time name="total">  541.53  541.08</time>
   <energy>
    <i name="e_fr_energy">   -370.22504245 </i>
    <i name="e_wo_entrp">   -370.13893829 </i>
    <i name="e_0_energy">   -370.19634106 </i>
   </energy>
  </scstep>
  <scstep>
   <time name="dav">  545.80  545.34</time>
   <time name="total">  566.48  566.02</time>
   <energy>
    <i name="e_fr_energy">   -370.22498385 </i>
    <i name="e_wo_entrp">   -370.13888989 </i>
    <i name="e_0_energy">   -370.19628586 </i>
   </energy>
  </scstep>
  <scstep>
   <time name="dav">  601.39  600.90</time>
   <time name="total">  622.00  621.50</time>
   <energy>
    <i name="e_fr_energy">   -370.22490919 </i>
    <i name="e_wo_entrp">   -370.13881550 </i>
    <i name="e_0_energy">   -370.19621129 </i>
   </energy>
  </scstep>
  <scstep>
   <time name="dav">  619.37  618.86</time>
   <time name="total">  639.90  639.38</time>
   <energy>
    <i name="e_fr_energy">   -370.22491471 </i>
    <i name="e_wo_entrp">   -370.13882302 </i>
    <i name="e_0_energy">   -370.19621748 </i>
   </energy>
  </scstep>
  <scstep>
   <time name="dav">  505.25  504.83</time>
   <time name="total">  525.89  525.46</time>
   <energy>
    <i name="e_fr_energy">   -370.22490991 </i>
    <i name="e_wo_entrp">   -370.13881884 </i>
    <i name="e_0_energy">   -370.19621289 </i>
   </energy>
  </scstep>
  <scstep>
   <time name="dav">  401.39  401.06</time>
   <time name="total">  422.03  421.68</time>
   <energy>
    <i name="e_fr_energy">   -370.22490867 </i>
    <i name="e_wo_entrp">   -370.13881791 </i>
    <i name="e_0_energy">   -370.19621175 </i>
   </energy>
  </scstep>
  <scstep>
   <time name="dav">  304.18  303.93</time>
   <time name="total">  305.49  305.24</time>
   <energy>
    <i name="alphaZ">   9846.09864404 </i>
    <i name="ewald">-153430.88980221 </i>
    <i name="hartreedc"> -59477.40829885 </i>
    <i name="XCdc">   5628.11473655 </i>
    <i name="pawpsdc"> 171960.18344799 </i>
    <i name="pawaedc">-181024.76000366 </i>
    <i name="eentropy">     -0.08609382 </i>
    <i name="bandstr"> -17888.12970531 </i>
    <i name="atom"> 224016.65216645 </i>
    <i name="e_fr_energy">   -370.22490882 </i>
    <i name="e_wo_entrp">   -370.13881501 </i>
    <i name="e_0_energy">   -370.19621088 </i>
   </energy>
  </scstep>
  <structure>
   <crystal>
    <varray name="basis" >
     <v>       0.00000000       7.05000000       7.05000000 </v>
     <v>       7.05000000       0.00000000       7.05000000 </v>
     <v>       7.05000000       7.05000000       0.00000000 </v>
    </varray>
    <i name="volume">    700.80525000 </i>
    <varray name="rec_basis" >
     <v>      -0.07092199       0.07092199       0.07092199 </v>
     <v>       0.07092199      -0.07092199       0.07092199 </v>
     <v>       0.07092199       0.07092199      -0.07092199 </v>
    </varray>
   </crystal>
   <varray name="positions" >
    <v>      -0.00106383       0.00106383       0.00106383 </v>
    <v>       0.00000000       0.00000000       0.25000000 </v>
    <v>       0.00000000       0.00000000       0.50000000 </v>
    <v>       0.00000000       0.00000000       0.75000000 </v>
    <v>       0.00000000       0.25000000       0.00000000 </v>
    <v>       0.00000000       0.25000000       0.25000000 </v>
    <v>       0.00000000       0.25000000       0.50000000 </v>
    <v>       0.00000000       0.25000000       0.75000000 </v>
    <v>       0.00000000       0.50000000       0.00000000 </v>
    <v>       0.00000000       0.50000000       0.25000000 </v>
    <v>       0.00000000       0.50000000       0.50000000 </v>
    <v>       0.00000000       0.50000000       0.75000000 </v>
    <v>       0.00000000       0.75000000       0.00000000 </v>
    <v>       0.00000000       0.75000000       0.25000000 </v>
    <v>       0.00000000       0.75000000       0.50000000 </v>
    <v>       0.00000000       0.75000000       0.75000000 </v>
    <v>       0.25000000       0.00000000       0.00000000 </v>
    <v>       0.25000000       0.00000000       0.25000000 </v>
    <v>       0.25000000       0.00000000       0.50000000 </v>
    <v>       0.25000000       0.00000000       0.75000000 </v>
    <v>       0.25000000       0.25000000       0.00000000 </v>
    <v>       0.25000000       0.25000000       0.25000000 </v>
    <v>       0.25000000       0.25000000       0.50000000 </v>
    <v>       0.25000000       0.25000000       0.75000000 </v>
    <v>       0.25000000       0.50000000       0.00000000 </v>
    <v>       0.25000000       0.50000000       0.25000000 </v>
    <v>       0.25000000       0.50000000       0.50000000 </v>
    <v>       0.25000000       0.50000000       0.75000000 </v>
    <v>       0.25000000       0.75000000       0.00000000 </v>
    <v>       0.25000000       0.75000000       0.25000000 </v>
    <v>       0.25000000       0.75000000       0.50000000 </v>
    <v>       0.25000000       0.75000000       0.75000000 </v>
    <v>       0.50000000       0.00000000       0.00000000 </v>
    <v>       0.50000000       0.00000000       0.25000000 </v>
    <v>       0.50000000       0.00000000       0.50000000 </v>
    <v>       0.50000000       0.00000000       0.75000000 </v>
    <v>       0.50000000       0.25000000       0.00000000 </v>
    <v>       0.50000000       0.25000000       0.25000000 </v>
    <v>       0.50000000       0.25000000       0.50000000 </v>
    <v>       0.50000000       0.25000000       0.75000000 </v>
    <v>       0.50000000       0.50000000       0.00000000 </v>
    <v>       0.50000000       0.50000000       0.25000000 </v>
    <v>       0.50000000       0.50000000       0.50000000 </v>
    <v>       0.50000000       0.50000000       0.75000000 </v>
    <v>       0.50000000       0.75000000       0.00000000 </v>
    <v>       0.50000000       0.75000000       0.25000000 </v>
    <v>       0.50000000       0.75000000       0.50000000 </v>
    <v>       0.50000000       0.75000000       0.75000000 </v>
    <v>       0.75000000       0.00000000       0.00000000 </v>
    <v>       0.75000000       0.00000000       0.25000000 </v>
    <v>       0.75000000       0.00000000       0.50000000 </v>
    <v>       0.75000000       0.00000000       0.75000000 </v>
    <v>       0.75000000       0.25000000       0.00000000 </v>
    <v>       0.75000000       0.25000000       0.25000000 </v>
    <v>       0.75000000       0.25000000       0.50000000 </v>
    <v>       0.75000000       0.25000000       0.75000000 </v>
    <v>       0.75000000       0.50000000       0.00000000 </v>
    <v>       0.75000000       0.50000000       0.25000000 </v>
    <v>       0.75000000       0.50000000       0.50000000 </v>
    <v>       0.75000000       0.50000000       0.75000000 </v>
    <v>       0.75000000       0.75000000       0.00000000 </v>
    <v>       0.75000000       0.75000000       0.25000000 </v>
    <v>       0.75000000       0.75000000       0.50000000 </v>
    <v>       0.75000000       0.75000000       0.75000000 </v>
   </varray>
  </structure>
  <varray name="forces" >
   <v>      -0.13295299       0.00000000      -0.00000000 </v>
   <v>       0.01599782       0.01819855      -0.00000000 </v>
   <v>       0.00005622       0.00005885      -0.00000000 </v>
   <v>       0.01517594       0.01713645      -0.00000000 </v>
   <v>       0.01599782       0.00000000       0.01819855 </v>
   <v>       0.00110318       0.00071756       0.00071756 </v>
   <v>       0.00016108       0.00070703      -0.00036619 </v>
   <v>      -0.00060181       0.00008354      -0.00008354 </v>
   <v>       0.00005622       0.00000000       0.00005885 </v>
   <v>       0.00016108      -0.00036619       0.00070703 </v>
   <v>      -0.00005361       0.00000000      -0.00000000 </v>
   <v>       0.00015910      -0.00032791       0.00077483 </v>
   <v>       0.01517594       0.00000000       0.01713645 </v>
   <v>      -0.00060181      -0.00008354       0.00008354 </v>
   <v>       0.00015910       0.00077483      -0.00032791 </v>
   <v>       0.00102546       0.00074744       0.00074744 </v>
   <v>      -0.00060181      -0.00008354      -0.00008354 </v>
   <v>       0.00015910       0.00077483       0.00032791 </v>
   <v>       0.00102546       0.00074744      -0.00074744 </v>
   <v>       0.01517594       0.00000000      -0.01713645 </v>
   <v>       0.00015910       0.00032791       0.00077483 </v>
   <v>       0.00021428       0.00000000      -0.00000000 </v>
   <v>       0.00016108       0.00036619      -0.00070703 </v>
   <v>      -0.00076616       0.00000000       0.00002987 </v>
   <v>       0.00102546      -0.00074744       0.00074744 </v>
   <v>       0.00016108      -0.00070703       0.00036619 </v>
   <v>      -0.00036898       0.00001416       0.00001416 </v>
   <v>       0.00005058       0.00000000      -0.00004080 </v>
   <v>       0.01517594      -0.01713645      -0.00000000 </v>
   <v>      -0.00076616       0.00002987      -0.00000000 </v>
   <v>       0.00005058      -0.00004080      -0.00000000 </v>
   <v>       0.00197652       0.00000000      -0.00000000 </v>
   <v>      -0.00005361       0.00000000      -0.00000000 </v>
   <v>       0.00015910      -0.00032791      -0.00077483 </v>
   <v>       0.00005622       0.00000000      -0.00005885 </v>
   <v>       0.00016108      -0.00036619      -0.00070703 </v>
   <v>       0.00015910      -0.00077483      -0.00032791 </v>
   <v>       0.00110318      -0.00071756      -0.00071756 </v>
   <v>       0.00003374       0.00000000       0.00005894 </v>
   <v>      -0.00036898      -0.00001416       0.00001416 </v>
   <v>       0.00005622      -0.00005885      -0.00000000 </v>
   <v>       0.00003374       0.00005894      -0.00000000 </v>
   <v>      -0.00075728       0.00000000      -0.00000000 </v>
   <v>       0.00005058       0.00004080      -0.00000000 </v>
   <v>       0.00016108      -0.00070703      -0.00036619 </v>
   <v>      -0.00036898       0.00001416      -0.00001416 </v>
   <v>       0.00005058       0.00000000       0.00004080 </v>
   <v>       0.00102546      -0.00074744      -0.00074744 </v>
   <v>      -0.00060181       0.00008354       0.00008354 </v>
   <v>       0.01599782       0.00000000      -0.01819855 </v>
   <v>       0.00110318       0.00071756      -0.00071756 </v>
   <v>       0.00016108       0.00070703       0.00036619 </v>
   <v>       0.01599782      -0.01819855      -0.00000000 </v>
   <v>       0.00202706       0.00000000      -0.00000000 </v>
   <v>       0.00003374      -0.00005894      -0.00000000 </v>
   <v>      -0.00076616      -0.00002987      -0.00000000 </v>
   <v>       0.00110318      -0.00071756       0.00071756 </v>
   <v>       0.00003374       0.00000000      -0.00005894 </v>
   <v>      -0.00036898      -0.00001416      -0.00001416 </v>
   <v>       0.00015910      -0.00077483       0.00032791 </v>
   <v>       0.00016108       0.00036619       0.00070703 </v>
   <v>      -0.00076616       0.00000000      -0.00002987 </v>
   <v>       0.00015910       0.00032791      -0.00077483 </v>
   <v>       0.00021428       0.00000000      -0.00000000 </v>
  </varray>
  <varray name="stress" >
   <v>     -11.03704743      -0.00000000       0.00000000 </v>
   <v>       0.00000000     -11.04174383       0.00000000 </v>
   <v>       0.00000000       0.00000000     -11.04174383 </v>
  </varray>
  <energy>
   <i name="e_fr_energy">   -370.22490882 </i>
   <i name="e_wo_entrp">   -370.19621088 </i>
   <i name="e_0_energy">     -0.08609382 </i>
  </energy>
  <kpoints>
   <generation param="Gamma">
    <v type="int" name="divisions">       3        3        3 </v>
    <v name="usershift">      0.00000000       0.00000000       0.00000000 </v>
    <v name="genvec1">      0.33333333       0.00000000       0.00000000 </v>
    <v name="genvec2">      0.00000000       0.33333333       0.00000000 </v>
    <v name="genvec3">      0.00000000       0.00000000       0.33333333 </v>
    <v name="shift">      0.00000000       0.00000000       0.00000000 </v>
   </generation>
   <varray name="kpointlist" >
    <v>       0.00000000       0.00000000       0.00000000 </v>
    <v>       0.33333333       0.00000000       0.00000000 </v>
    <v>       0.33333333       0.33333333       0.00000000 </v>
    <v>      -0.33333333       0.33333333       0.00000000 </v>
    <v>       0.00000000       0.33333333       0.33333333 </v>
    <v>      -0.33333333       0.33333333       0.33333333 </v>
   </varray>
   <varray name="weights" >
    <v>       0.03703704 </v>
    <v>       0.29629630 </v>
    <v>       0.14814815 </v>
    <v>       0.29629630 </v>
    <v>       0.07407407 </v>
    <v>       0.14814815 </v>
   </varray>
  </kpoints>
  <time name="totalsc"> 8067.63 8061.05</time>
 </calculation>
 <calculation>
  <scstep>
   <time name="dav">  596.35  595.86</time>
   <time name="total">  617.91  617.40</time>
   <energy>
    <i name="alphaZ">   9846.09864404 </i>
    <i name="ewald">-153430.88980221 </i>
    <i name="hartreedc"> -59477.45641276 </i>
    <i name="XCdc">   5628.11734170 </i>
    <i name="pawpsdc"> 171960.18134494 </i>
    <i name="pawaedc">-181024.75817149 </i>
    <i name="eentropy">     -0.08604914 </i>
    <i name="bandstr"> -17887.73698611 </i>
    <i name="atom"> 224016.65216645 </i>
    <i name="e_fr_energy">   -369.87792458 </i>
    <i name="e_wo_entrp">   -369.79187543 </i>
    <i name="e_0_energy">   -369.84924153 </i>
   </energy>
  </scstep>
  <scstep>
   <time name="dav">  485.89  485.48</time>
   <time name="total">  507.42  507.01</time>
   <energy>
    <i name="e_fr_energy">   -370.23549874 </i>
    <i name="e_wo_entrp">   -370.14929974 </i>
    <i name="e_0_energy">   -370.20676574 </i>
   </energy>
  </scstep>
  <scstep>
   <time name="dav">  562.10  561.64</time>
   <time name="total">  583.26  582.80</time>
   <energy>
    <i name="e_fr_energy">   -370.23090326 </i>
    <i name="e_wo_entrp">   -370.14441037 </i>
    <i name="e_0_energy">   -370.20207229 </i>
   </energy>
  </scstep>
  <scstep>
   <time name="dav">  557.73  557.26</time>
   <time name="total">  579.08  578.60</time>
   <energy>
    <i name="e_fr_energy">   -370.23479617 </i>
    <i name="e_wo_entrp">   -370.14842686 </i>
    <i name="e_0_energy">   -370.20600640 </i>
   </energy>
  </scstep>
  <scstep>
   <time name="dav">  505.52  505.10</time>
   <time name="total">  526.82  526.40</time>
   <energy>
    <i name="e_fr_energy">   -370.22579946 </i>
    <i name="e_wo_entrp">   -370.13959634 </i>
    <i name="e_0_energy">   -370.19706509 </i>
   </energy>
  </scstep>
  <scstep>
   <time name="dav">  573.57  573.10</time>
   <time name="total">  595.08  594.58</time>
   <energy>
    <i name="e_fr_energy">   -370.22563089 </i>
    <i name="e_wo_entrp">   -370.13944485 </i>
    <i name="e_0_energy">   -370.19690221 </i>
   </energy>
  </scstep>
  <scstep>
   <time name="dav">  525.44  525.00</time>
   <time name="total">  546.71  546.26</time>
   <energy>
    <i name="e_fr_energy">   -370.22544465 </i>
    <i name="e_wo_entrp">   -370.13929681 </i>
    <i name="e_0_energy">   -370.19672870 </i>
   </energy>
  </scstep>
  <scstep>
   <time name="dav">  522.40  522.01</time>
   <time name="total">  543.86  543.46</time>
   <energy>
    <i name="e_fr_energy">   -370.22528458 </i>
    <i name="e_wo_entrp">   -370.13916695 </i>
    <i name="e_0_energy">   -370.19657870 </i>
   </energy>
  </scstep>
  <scstep>
   <time name="dav">  517.10  516.67</time>
   <time name="total">  538.82  538.37</time>
   <energy>
    <i name="e_fr_energy">   -370.22534597 </i>
    <i name="e_wo_entrp">   -370.13925889 </i>
    <i name="e_0_energy">   -370.19665028 </i>
   </energy>
  </scstep>
  <scstep>
   <time name="dav">  588.13  587.64</time>
   <time name="total">  609.33  608.83</time>
   <energy>
    <i name="e_fr_energy">   -370.22495217 </i>
    <i name="e_wo_entrp">   -370.13889563 </i>
    <i name="e_0_energy">   -370.19626665 </i>
   </energy>
  </scstep>
  <scstep>
   <time name="dav">  589.47  588.98</time>
   <time name="total">  610.81  610.30</time>
   <energy>
    <i name="e_fr_energy">   -370.22491098 </i>
    <i name="e_wo_entrp">   -370.13885259 </i>
    <i name="e_0_energy">   -370.19622485 </i>
   </energy>
  </scstep>
  <scstep>
   <time name="dav">  615.52  615.02</time>
   <time name="total">  636.82  636.31</time>
   <energy>
    <i name="e_fr_energy">   -370.22492124 </i>
    <i name="e_wo_entrp">   -370.13885208 </i>
    <i name="e_0_energy">   -370.19623152 </i>
   </energy>
  </scstep>
  <scstep>
   <time name="dav">  508.96  508.53</time>
   <time name="total">  530.28  529.86</time>
   <energy>
    <i name="e_fr_energy">   -370.22490870 </i>
    <i name="e_wo_entrp">   -370.13883192 </i>
    <i name="e_0_energy">   -370.19621644 </i>
   </energy>
  </scstep>
  <scstep>
   <time name="dav">  512.75  512.33</time>
   <time name="total">  533.89  533.46</time>
   <energy>
    <i name="e_fr_energy">   -370.22491299 </i>
    <i name="e_wo_entrp">   -370.13882739 </i>
    <i name="e_0_energy">   -370.19621779 </i>
   </energy>
  </scstep>
  <scstep>
   <time name="dav">  411.36  411.02</time>
   <time name="total">  433.05  432.70</time>
   <energy>
    <i name="e_fr_energy">   -370.22490877 </i>
    <i name="e_wo_entrp">   -370.13881621 </i>
    <i name="e_0_energy">   -370.19621125 </i>
   </energy>
  </scstep>
  <scstep>
   <time name="dav">  303.75  303.50</time>
   <time name="total">  305.00  304.76</time>
   <energy>
    <i name="alphaZ">   9846.09864404 </i>
    <i name="ewald">-153430.88980221 </i>
    <i name="hartreedc"> -59477.41009298 </i>
    <i name="XCdc">   5628.11479214 </i>
    <i name="pawpsdc"> 171960.18807762 </i>
    <i name="pawaedc">-181024.76593967 </i>
    <i name="eentropy">     -0.08609329 </i>
    <i name="bandstr"> -17888.12666127 </i>
    <i name="atom"> 224016.65216645 </i>
    <i name="e_fr_energy">   -370.22490917 </i>
    <i name="e_wo_entrp">   -370.13881588 </i>
    <i name="e_0_energy">   -370.19621141 </i>
   </energy>
  </scstep>
  <structure>
   <crystal>
    <varray name="basis" >
     <v>       0.00000000       7.05000000       7.05000000 </v>
     <v>       7.05000000       0.00000000       7.05000000 </v>
     <v>       7.05000000       7.05000000       0.00000000 </v>
    </varray>
    <i name="volume">    700.80525000 </i>
    <varray name="rec_basis" >
     <v>      -0.07092199       0.07092199       0.07092199 </v>
     <v>       0.07092199      -0.07092199       0.07092199 </v>
     <v>       0.07092199       0.07092199      -0.07092199 </v>
    </varray>
   </crystal>
   <varray name="positions" >
    <v>       0.00106383      -0.00106383      -0.00106383 </v>
    <v>       0.00000000       0.00000000       0.25000000 </v>
    <v>       0.00000000       0.00000000       0.50000000 </v>
    <v>       0.00000000       0.00000000       0.75000000 </v>
    <v>       0.00000000       0.25000000       0.00000000 </v>
    <v>       0.00000000       0.25000000       0.25000000 </v>
    <v>       0.00000000       0.25000000       0.50000000 </v>
    <v>       0.00000000       0.25000000       0.75000000 </v>
    <v>       0.00000000       0.50000000       0.00000000 </v>
    <v>       0.00000000       0.50000000       0.25000000 </v>
    <v>       0.00000000       0.50000000       0.50000000 </v>
    <v>       0.00000000       0.50000000       0.75000000 </v>
    <v>       0.00000000       0.75000000       0.00000000 </v>
    <v>       0.00000000       0.75000000       0.25000000 </v>
    <v>       0.00000000       0.75000000       0.50000000 </v>
    <v>       0.00000000       0.75000000       0.75000000 </v>
    <v>       0.25000000       0.00000000       0.00000000 </v>
    <v>       0.25000000       0.00000000       0.25000000 </v>
    <v>       0.25000000       0.00000000       0.50000000 </v>
    <v>       0.25000000       0.00000000       0.75000000 </v>
    <v>       0.25000000       0.25000000       0.00000000 </v>
    <v>       0.25000000       0.25000000       0.25000000 </v>
    <v>       0.25000000       0.25000000       0.50000000 </v>
    <v>       0.25000000       0.25000000       0.75000000 </v>
    <v>       0.25000000       0.50000000       0.00000000 </v>
    <v>       0.25000000       0.50000000       0.25000000 </v>
    <v>       0.25000000       0.50000000       0.50000000 </v>
    <v>       0.25000000       0.50000000       0.75000000 </v>
    <v>       0.25000000       0.75000000       0.00000000 </v>
    <v>       0.25000000       0.75000000       0.25000000 </v>
    <v>       0.25000000       0.75000000       0.50000000 </v>
    <v>       0.25000000       0.75000000       0.75000000 </v>
    <v>       0.50000000       0.00000000       0.00000000 </v>
    <v>       0.50000000       0.00000000       0.25000000 </v>
    <v>       0.50000000       0.00000000       0.50000000 </v>
    <v>       0.50000000       0.00000000       0.75000000 </v>
    <v>       0.50000000       0.25000000       0.00000000 </v>
    <v>       0.50000000       0.25000000       0.25000000 </v>
    <v>       0.50000000       0.25000000       0.50000000 </v>
    <v>       0.50000000       0.25000000       0.75000000 </v>
    <v>       0.50000000       0.50000000       0.00000000 </v>
    <v>       0.50000000       0.50000000       0.25000000 </v>
    <v>       0.50000000       0.50000000       0.50000000 </v>
    <v>       0.50000000       0.50000000       0.75000000 </v>
    <v>       0.50000000       0.75000000       0.00000000 </v>
    <v>       0.50000000       0.75000000       0.25000000 </v>
    <v>       0.50000000       0.75000000       0.50000000 </v>
    <v>       0.50000000       0.75000000       0.75000000 </v>
    <v>       0.75000000       0.00000000       0.00000000 </v>
    <v>       0.75000000       0.00000000       0.25000000 </v>
    <v>       0.75000000       0.00000000       0.50000000 </v>
    <v>       0.75000000       0.00000000       0.75000000 </v>
    <v>       0.75000000       0.25000000       0.00000000 </v>
    <v>       0.75000000       0.25000000       0.25000000 </v>
    <v>       0.75000000       0.25000000       0.50000000 </v>
    <v>       0.75000000       0.25000000       0.75000000 </v>
    <v>       0.75000000       0.50000000       0.00000000 </v>
    <v>       0.75000000       0.50000000       0.25000000 </v>
    <v>       0.75000000       0.50000000       0.50000000 </v>
    <v>       0.75000000       0.50000000       0.75000000 </v>
    <v>       0.75000000       0.75000000       0.00000000 </v>
    <v>       0.75000000       0.75000000       0.25000000 </v>
    <v>       0.75000000       0.75000000       0.50000000 </v>
    <v>       0.75000000       0.75000000       0.75000000 </v>
   </varray>
  </structure>
  <varray name="forces" >
   <v>       0.13285516       0.00000000       0.00000000 </v>
   <v>      -0.01556614      -0.01764457       0.00000000 </v>
   <v>      -0.00010984       0.00001893       0.00000000 </v>
   <v>      -0.01625503      -0.01859848       0.00000000 </v>
   <v>      -0.01556614       0.00000000      -0.01764457 </v>
   <v>      -0.00109535      -0.00064493      -0.00064493 </v>
   <v>      -0.00015468      -0.00070223       0.00035859 </v>
   <v>       0.00088213       0.00015813      -0.00015813 </v>
   <v>      -0.00010984       0.00000000       0.00001893 </v>
   <v>      -0.00015468       0.00035859      -0.00070223 </v>
   <v>       0.00020595       0.00000000       0.00000000 </v>
   <v>      -0.00008625       0.00029853      -0.00068776 </v>
   <v>      -0.01625503       0.00000000      -0.01859848 </v>
   <v>       0.00088213      -0.00015813       0.00015813 </v>
   <v>      -0.00008625      -0.00068776       0.00029853 </v>
   <v>      -0.00111316      -0.00071219      -0.00071219 </v>
   <v>       0.00088213      -0.00015813      -0.00015813 </v>
   <v>      -0.00008625      -0.00068776      -0.00029853 </v>
   <v>      -0.00111316      -0.00071219       0.00071219 </v>
   <v>      -0.01625503       0.00000000       0.01859848 </v>
   <v>      -0.00008625      -0.00029853      -0.00068776 </v>
   <v>      -0.00033723       0.00000000       0.00000000 </v>
   <v>      -0.00015468      -0.00035859       0.00070223 </v>
   <v>       0.00089719       0.00000000      -0.00000410 </v>
   <v>      -0.00111316       0.00071219      -0.00071219 </v>
   <v>      -0.00015468       0.00070223      -0.00035859 </v>
   <v>       0.00051695      -0.00002522      -0.00002522 </v>
   <v>       0.00003694       0.00000000       0.00001906 </v>
   <v>      -0.01625503       0.01859848       0.00000000 </v>
   <v>       0.00089719      -0.00000410       0.00000000 </v>
   <v>       0.00003694       0.00001906       0.00000000 </v>
   <v>      -0.00210069       0.00000000       0.00000000 </v>
   <v>       0.00020595       0.00000000       0.00000000 </v>
   <v>      -0.00008625       0.00029853       0.00068776 </v>
   <v>      -0.00010984       0.00000000      -0.00001893 </v>
   <v>      -0.00015468       0.00035859       0.00070223 </v>
   <v>      -0.00008625       0.00068776       0.00029853 </v>
   <v>      -0.00109535       0.00064493       0.00064493 </v>
   <v>      -0.00002397       0.00000000      -0.00008442 </v>
   <v>       0.00051695       0.00002522      -0.00002522 </v>
   <v>      -0.00010984      -0.00001893       0.00000000 </v>
   <v>      -0.00002397      -0.00008442       0.00000000 </v>
   <v>       0.00091930       0.00000000       0.00000000 </v>
   <v>       0.00003694      -0.00001906       0.00000000 </v>
   <v>      -0.00015468       0.00070223       0.00035859 </v>
   <v>       0.00051695      -0.00002522       0.00002522 </v>
   <v>       0.00003694       0.00000000      -0.00001906 </v>
   <v>      -0.00111316       0.00071219       0.00071219 </v>
   <v>       0.00088213       0.00015813       0.00015813 </v>
   <v>      -0.01556614       0.00000000       0.01764457 </v>
   <v>      -0.00109535      -0.00064493       0.00064493 </v>
   <v>      -0.00015468      -0.00070223      -0.00035859 </v>
   <v>      -0.01556614       0.01764457       0.00000000 </v>
   <v>      -0.00216261       0.00000000       0.00000000 </v>
   <v>      -0.00002397       0.00008442       0.00000000 </v>
   <v>       0.00089719       0.00000410       0.00000000 </v>
   <v>      -0.00109535       0.00064493      -0.00064493 </v>
   <v>      -0.00002397       0.00000000       0.00008442 </v>
   <v>       0.00051695       0.00002522       0.00002522 </v>
   <v>      -0.00008625       0.00068776      -0.00029853 </v>
   <v>      -0.00015468      -0.00035859      -0.00070223 </v>
   <v>       0.00089719       0.00000000       0.00000410 </v>
   <v>      -0.00008625      -0.00029853       0.00068776 </v>
   <v>      -0.00033723       0.00000000       0.00000000 </v>
  </varray>
  <varray name="stress" >
   <v>     -11.06516953      -0.00000000       0.00000000 </v>
   <v>      -0.00000000     -11.06599780       0.00000000 </v>
   <v>       0.00000000       0.00000000     -11.06599780 </v>
  </varray>
  <energy>
   <i name="e_fr_energy">   -370.22490917 </i>
   <i name="e_wo_entrp">   -370.19621141 </i>
   <i name="e_0_energy">     -0.08609329 </i>
  </energy>
  <dynmat>
   <varray name="hessian" >
    <v>      -0.15096732       0.00000000       0.00000000       0.01788917       0.02032659      -0.00000000       0.00009431       0.00002267      -0.00000000       0.01788917       0.02032659       0.00000000       0.01788917       0.00000000       0.02032659       0.00123165       0.00080848       0.00080848       0.00015934       0.00080848      -0.00038372      -0.00084281       0.00000000       0.00000000       0.00009431      -0.00000000       0.00002267       0.00015934      -0.00038372       0.00080848      -0.00014742       0.00000000       0.00000000       0.00015934      -0.00038372       0.00080848       0.01788917      -0.00000000       0.02032659      -0.00084281      -0.00000000      -0.00000000       0.00015934       0.00080848      -0.00038372       0.00123165       0.00080848       0.00080848      -0.00084281       0.00000000      -0.00000000       0.00015934       0.00080848       0.00038372       0.00123165       0.00080848      -0.00080848       0.01788917       0.00000000      -0.02032659       0.00015934       0.00038372       0.00080848       0.00031323       0.00000000      -0.00000000       0.00015934       0.00038372      -0.00080848      -0.00094471       0.00000000       0.00000000       0.00123165      -0.00080848       0.00080848       0.00015934      -0.00080848       0.00038372      -0.00050317      -0.00000000      -0.00000000       0.00002026      -0.00000000      -0.00005771       0.01788917      -0.02032659      -0.00000000      -0.00094471       0.00000000      -0.00000000       0.00002026      -0.00005771      -0.00000000       0.00234761       0.00000000       0.00000000      -0.00014742       0.00000000       0.00000000       0.00015934      -0.00038372      -0.00080848       0.00009431      -0.00000000      -0.00002267       0.00015934      -0.00038372      -0.00080848       0.00015934      -0.00080848      -0.00038372       0.00123165      -0.00080848      -0.00080848       0.00002026      -0.00000000       0.00005771      -0.00050317      -0.00000000       0.00000000       0.00009431      -0.00002267      -0.00000000       0.00002026       0.00005771       0.00000000      -0.00095222       0.00000000       0.00000000       0.00002026       0.00005771      -0.00000000       0.00015934      -0.00080848      -0.00038372      -0.00050317      -0.00000000      -0.00000000       0.00002026       0.00000000       0.00005771       0.00123165      -0.00080848      -0.00080848      -0.00084281      -0.00000000       0.00000000       0.01788917      -0.00000000      -0.02032659       0.00123165       0.00080848      -0.00080848       0.00015934       0.00080848       0.00038372       0.01788917      -0.02032659       0.00000000       0.00234761      -0.00000000      -0.00000000       0.00002026      -0.00005771       0.00000000      -0.00094471      -0.00000000      -0.00000000       0.00123165      -0.00080848       0.00080848       0.00002026       0.00000000      -0.00005771      -0.00050317       0.00000000       0.00000000       0.00015934      -0.00080848       0.00038372       0.00015934       0.00038372       0.00080848      -0.00094471       0.00000000      -0.00000000       0.00015934       0.00038372      -0.00080848       0.00031323       0.00000000      -0.00000000 </v>
    <v>       0.00000000      -0.15096732       0.00000000       0.02032659       0.01788917       0.00000000       0.00002267       0.00009431      -0.00000000       0.02032659       0.01788917      -0.00000000      -0.00000000      -0.00084281       0.00000000       0.00080848       0.00015934       0.00038372       0.00080848       0.00123165      -0.00080848      -0.00000000       0.01788917      -0.02032659      -0.00000000      -0.00014742       0.00000000      -0.00038372       0.00015934      -0.00080848       0.00000000       0.00009431      -0.00002267      -0.00038372       0.00015934      -0.00080848       0.00000000      -0.00084281      -0.00000000       0.00000000       0.01788917      -0.02032659       0.00080848       0.00123165      -0.00080848       0.00080848       0.00015934       0.00038372      -0.00000000       0.01788917       0.02032659       0.00080848       0.00123165       0.00080848       0.00080848       0.00015934      -0.00038372      -0.00000000      -0.00084281      -0.00000000       0.00038372       0.00015934       0.00080848       0.00000000       0.00031323      -0.00000000       0.00038372       0.00015934      -0.00080848       0.00000000      -0.00094471       0.00000000      -0.00080848       0.00015934      -0.00038372      -0.00080848       0.00123165      -0.00080848       0.00000000       0.00002026       0.00005771       0.00000000      -0.00050317      -0.00000000      -0.02032659       0.01788917      -0.00000000      -0.00000000       0.00234761      -0.00000000      -0.00005771       0.00002026      -0.00000000      -0.00000000      -0.00094471       0.00000000       0.00000000       0.00009431       0.00002267      -0.00038372       0.00015934       0.00080848      -0.00000000      -0.00014742       0.00000000      -0.00038372       0.00015934       0.00080848      -0.00080848       0.00123165       0.00080848      -0.00080848       0.00015934       0.00038372       0.00000000      -0.00050317       0.00000000      -0.00000000       0.00002026      -0.00005771      -0.00002267       0.00009431      -0.00000000       0.00005771       0.00002026       0.00000000       0.00000000      -0.00095222       0.00000000       0.00005771       0.00002026      -0.00000000      -0.00080848       0.00123165       0.00080848      -0.00000000       0.00002026      -0.00005771      -0.00000000      -0.00050317      -0.00000000      -0.00080848       0.00015934       0.00038372       0.00000000       0.01788917       0.02032659       0.00000000      -0.00084281       0.00000000       0.00080848       0.00015934      -0.00038372       0.00080848       0.00123165       0.00080848      -0.02032659       0.01788917       0.00000000       0.00000000      -0.00094471       0.00000000      -0.00005771       0.00002026       0.00000000       0.00000000       0.00234761       0.00000000      -0.00080848       0.00015934      -0.00038372      -0.00000000      -0.00050317      -0.00000000      -0.00000000       0.00002026       0.00005771      -0.00080848       0.00123165      -0.00080848       0.00038372       0.00015934       0.00080848       0.00000000      -0.00094471      -0.00000000       0.00038372       0.00015934      -0.00080848       0.00000000       0.00031323      -0.00000000 </v>
    <v>       0.00000000       0.00000000      -0.15096732       0.00000000      -0.00000000      -0.00084281      -0.00000000      -0.00000000      -0.00014742      -0.00000000       0.00000000      -0.00084281       0.02032659      -0.00000000       0.01788917       0.00080848       0.00038372       0.00015934      -0.00038372      -0.00080848       0.00015934      -0.00000000      -0.02032659       0.01788917       0.00002267       0.00000000       0.00009431       0.00080848      -0.00080848       0.00123165       0.00000000      -0.00002267       0.00009431       0.00080848      -0.00080848       0.00123165       0.02032659       0.00000000       0.01788917       0.00000000      -0.02032659       0.01788917      -0.00038372      -0.00080848       0.00015934       0.00080848       0.00038372       0.00015934       0.00000000       0.02032659       0.01788917       0.00038372       0.00080848       0.00015934      -0.00080848      -0.00038372       0.00015934      -0.02032659       0.00000000       0.01788917       0.00080848       0.00080848       0.00123165      -0.00000000      -0.00000000       0.00031323      -0.00080848      -0.00080848       0.00123165      -0.00000000      -0.00000000       0.00234761       0.00080848      -0.00038372       0.00015934       0.00038372      -0.00080848       0.00015934       0.00000000       0.00005771       0.00002026      -0.00005771      -0.00000000       0.00002026       0.00000000       0.00000000      -0.00084281      -0.00000000       0.00000000      -0.00094471       0.00000000       0.00000000      -0.00050317      -0.00000000       0.00000000      -0.00094471       0.00000000       0.00002267       0.00009431      -0.00080848       0.00080848       0.00123165      -0.00002267       0.00000000       0.00009431      -0.00080848       0.00080848       0.00123165      -0.00038372       0.00080848       0.00015934      -0.00080848       0.00038372       0.00015934       0.00005771      -0.00000000       0.00002026      -0.00000000      -0.00005771       0.00002026      -0.00000000      -0.00000000      -0.00014742      -0.00000000      -0.00000000      -0.00050317       0.00000000       0.00000000      -0.00095222       0.00000000       0.00000000      -0.00050317      -0.00038372       0.00080848       0.00015934       0.00000000      -0.00005771       0.00002026       0.00005771       0.00000000       0.00002026      -0.00080848       0.00038372       0.00015934      -0.00000000       0.02032659       0.01788917      -0.02032659      -0.00000000       0.01788917      -0.00080848      -0.00038372       0.00015934       0.00038372       0.00080848       0.00015934      -0.00000000      -0.00000000      -0.00084281       0.00000000       0.00000000      -0.00094471      -0.00000000      -0.00000000      -0.00050317      -0.00000000      -0.00000000      -0.00094471       0.00080848      -0.00038372       0.00015934      -0.00005771      -0.00000000       0.00002026      -0.00000000       0.00005771       0.00002026       0.00038372      -0.00080848       0.00015934       0.00080848       0.00080848       0.00123165       0.00000000       0.00000000       0.00234761      -0.00080848      -0.00080848       0.00123165      -0.00000000      -0.00000000       0.00031323 </v>
[...]
       <r>    23.0873     0.0000   648.0000 </r>
       <r>    23.3724     0.0000   648.0000 </r>
       <r>    23.6576     0.0000   648.0000 </r>
       <r>    23.9427     0.0000   648.0000 </r>
       <r>    24.2278     0.0000   648.0000 </r>
       <r>    24.5129     0.0000   648.0000 </r>
       <r>    24.7980     0.0000   648.0000 </r>
       <r>    25.0832     0.0000   648.0000 </r>
       <r>    25.3683     0.0000   648.0000 </r>
      </set>
      <set comment="spin 2">
       <r>   -60.1670     0.0000     0.0000 </r>
       <r>   -59.8819     0.0000     0.0000 </r>
       <r>   -59.5968     0.0000     0.0000 </r>
       <r>   -59.3117     0.0000     0.0000 </r>
       <r>   -59.0266     0.0000     0.0000 </r>
       <r>   -58.7414     0.0000     0.0000 </r>
       <r>   -58.4563     0.0000     0.0000 </r>
       <r>   -58.1712     0.0000     0.0000 </r>
       <r>   -57.8861     0.0000     0.0000 </r>
       <r>   -57.6010     0.0000     0.0000 </r>
       <r>   -57.3159     0.0000     0.0000 </r>
       <r>   -57.0307    -0.0000    -0.0000 </r>
       <r>   -56.7456    -0.0000    -0.0000 </r>
       <r>   -56.4605    -0.0000    -0.0000 </r>
       <r>   -56.1754    -0.0000    -0.0000 </r>
       <r>   -55.8903    -0.1210    -0.0345 </r>
       <r>   -55.6052   -13.4528    -3.8701 </r>
       <r>   -55.3200   236.3066    63.5051 </r>
       <r>   -55.0349   465.6150   196.2601 </r>
       <r>   -54.7498   -14.1312   192.2311 </r>
       <r>   -54.4647    -0.8102   192.0001 </r>
       <r>   -54.1796    -0.0002   192.0000 </r>
       <r>   -53.8944    -0.0000   192.0000 </r>
       <r>   -53.6093     0.0000   192.0000 </r>
       <r>   -53.3242     0.0000   192.0000 </r>
       <r>   -53.0391     0.0000   192.0000 </r>
       <r>   -52.7540     0.0000   192.0000 </r>
       <r>   -52.4689     0.0000   192.0000 </r>
       <r>   -52.1837     0.0000   192.0000 </r>
       <r>   -51.8986     0.0000   192.0000 </r>
       <r>   -51.6135     0.0000   192.0000 </r>
       <r>   -51.3284     0.0000   192.0000 </r>
       <r>   -51.0433     0.0000   192.0000 </r>
       <r>   -50.7582     0.0000   192.0000 </r>
       <r>   -50.4730     0.0000   192.0000 </r>
       <r>   -50.1879     0.0000   192.0000 </r>
       <r>   -49.9028     0.0000   192.0000 </r>
       <r>   -49.6177     0.0000   192.0000 </r>
       <r>   -49.3326     0.0000   192.0000 </r>
       <r>   -49.0474     0.0000   192.0000 </r>
       <r>   -48.7623     0.0000   192.0000 </r>
       <r>   -48.4772     0.0000   192.0000 </r>
       <r>   -48.1921     0.0000   192.0000 </r>
       <r>   -47.9070     0.0000   192.0000 </r>
       <r>   -47.6219     0.0000   192.0000 </r>
       <r>   -47.3367     0.0000   192.0000 </r>
       <r>   -47.0516     0.0000   192.0000 </r>
       <r>   -46.7665     0.0000   192.0000 </r>
       <r>   -46.4814     0.0000   192.0000 </r>
       <r>   -46.1963     0.0000   192.0000 </r>
       <r>   -45.9112     0.0000   192.0000 </r>
       <r>   -45.6260     0.0000   192.0000 </r>
       <r>   -45.3409     0.0000   192.0000 </r>
       <r>   -45.0558     0.0000   192.0000 </r>
       <r>   -44.7707     0.0000   192.0000 </r>
       <r>   -44.4856     0.0000   192.0000 </r>
       <r>   -44.2004     0.0000   192.0000 </r>
       <r>   -43.9153     0.0000   192.0000 </r>
       <r>   -43.6302     0.0000   192.0000 </r>
       <r>   -43.3451     0.0000   192.0000 </r>
       <r>   -43.0600     0.0000   192.0000 </r>
       <r>   -42.7749     0.0000   192.0000 </r>
       <r>   -42.4897     0.0000   192.0000 </r>
       <r>   -42.2046     0.0000   192.0000 </r>
       <r>   -41.9195     0.0000   192.0000 </r>
       <r>   -41.6344     0.0000   192.0000 </r>
       <r>   -41.3493     0.0000   192.0000 </r>
       <r>   -41.0642     0.0000   192.0000 </r>
       <r>   -40.7790     0.0000   192.0000 </r>
       <r>   -40.4939     0.0000   192.0000 </r>
       <r>   -40.2088     0.0000   192.0000 </r>
       <r>   -39.9237     0.0000   192.0000 </r>
       <r>   -39.6386     0.0000   192.0000 </r>
       <r>   -39.3534     0.0000   192.0000 </r>
       <r>   -39.0683     0.0000   192.0000 </r>
       <r>   -38.7832     0.0000   192.0000 </r>
       <r>   -38.4981     0.0000   192.0000 </r>
       <r>   -38.2130     0.0000   192.0000 </r>
       <r>   -37.9279     0.0000   192.0000 </r>
       <r>   -37.6427     0.0000   192.0000 </r>
       <r>   -37.3576     0.0000   192.0000 </r>
       <r>   -37.0725     0.0000   192.0000 </r>
       <r>   -36.7874     0.0000   192.0000 </r>
       <r>   -36.5023     0.0000   192.0000 </r>
       <r>   -36.2172     0.0000   192.0000 </r>
       <r>   -35.9320     0.0000   192.0000 </r>
       <r>   -35.6469     0.0000   192.0000 </r>
       <r>   -35.3618     0.0000   192.0000 </r>
       <r>   -35.0767     0.0000   192.0000 </r>
       <r>   -34.7916     0.0000   192.0000 </r>
       <r>   -34.5064     0.0000   192.0000 </r>
       <r>   -34.2213     0.0000   192.0000 </r>
       <r>   -33.9362     0.0000   192.0000 </r>
       <r>   -33.6511     0.0000   192.0000 </r>
       <r>   -33.3660     0.0000   192.0000 </r>
       <r>   -33.0809     0.0000   192.0000 </r>
       <r>   -32.7957     0.0000   192.0000 </r>
       <r>   -32.5106     0.0000   192.0000 </r>
       <r>   -32.2255     0.0000   192.0000 </r>
       <r>   -31.9404     0.0000   192.0000 </r>
       <r>   -31.6553     0.0000   192.0000 </r>
       <r>   -31.3702     0.0000   192.0000 </r>
       <r>   -31.0850     0.0000   192.0000 </r>
       <r>   -30.7999     0.0000   192.0000 </r>
       <r>   -30.5148     0.0000   192.0000 </r>
       <r>   -30.2297     0.0000   192.0000 </r>
       <r>   -29.9446     0.0000   192.0000 </r>
       <r>   -29.6594     0.0000   192.0000 </r>
       <r>   -29.3743     0.0000   192.0000 </r>
       <r>   -29.0892     0.0000   192.0000 </r>
       <r>   -28.8041     0.0000   192.0000 </r>
       <r>   -28.5190     0.0000   192.0000 </r>
       <r>   -28.2339     0.0000   192.0000 </r>
       <r>   -27.9487     0.0000   192.0000 </r>
       <r>   -27.6636     0.0000   192.0000 </r>
       <r>   -27.3785     0.0000   192.0000 </r>
       <r>   -27.0934     0.0000   192.0000 </r>
       <r>   -26.8083     0.0000   192.0000 </r>
       <r>   -26.5232     0.0000   192.0000 </r>
       <r>   -26.2380     0.0000   192.0000 </r>
       <r>   -25.9529     0.0000   192.0000 </r>
       <r>   -25.6678     0.0000   192.0000 </r>
       <r>   -25.3827     0.0000   192.0000 </r>
       <r>   -25.0976     0.0000   192.0000 </r>
       <r>   -24.8124     0.0000   192.0000 </r>
       <r>   -24.5273     0.0000   192.0000 </r>
       <r>   -24.2422     0.0000   192.0000 </r>
       <r>   -23.9571     0.0000   192.0000 </r>
       <r>   -23.6720     0.0000   192.0000 </r>
       <r>   -23.3869     0.0000   192.0000 </r>
       <r>   -23.1017     0.0000   192.0000 </r>
       <r>   -22.8166     0.0000   192.0000 </r>
       <r>   -22.5315     0.0000   192.0000 </r>
       <r>   -22.2464     0.0000   192.0000 </r>
       <r>   -21.9613     0.0000   192.0000 </r>
       <r>   -21.6761     0.0000   192.0000 </r>
       <r>   -21.3910     0.0000   192.0000 </r>
       <r>   -21.1059     0.0000   192.0000 </r>
       <r>   -20.8208     0.0000   192.0000 </r>
       <r>   -20.5357     0.0000   192.0000 </r>
       <r>   -20.2506     0.0000   192.0000 </r>
       <r>   -19.9654     0.0000   192.0000 </r>
       <r>   -19.6803     0.0000   192.0000 </r>
       <r>   -19.3952     0.0000   192.0000 </r>
       <r>   -19.1101     0.0000   192.0000 </r>
       <r>   -18.8250     0.0000   192.0000 </r>
       <r>   -18.5399     0.0000   192.0000 </r>
       <r>   -18.2547     0.0000   192.0000 </r>
       <r>   -17.9696     0.0000   192.0000 </r>
       <r>   -17.6845     0.0000   192.0000 </r>
       <r>   -17.3994     0.0000   192.0000 </r>
       <r>   -17.1143     0.0000   192.0000 </r>
       <r>   -16.8291     0.0000   192.0000 </r>
       <r>   -16.5440     0.0000   192.0000 </r>
       <r>   -16.2589     0.0000   192.0000 </r>
       <r>   -15.9738     0.0000   192.0000 </r>
       <r>   -15.6887     0.0000   192.0000 </r>
       <r>   -15.4036     0.0000   192.0000 </r>
       <r>   -15.1184     0.0000   192.0000 </r>
       <r>   -14.8333     0.0000   192.0000 </r>
       <r>   -14.5482     0.0000   192.0000 </r>
       <r>   -14.2631     0.0000   192.0000 </r>
       <r>   -13.9780     0.0000   192.0000 </r>
       <r>   -13.6929     0.0000   192.0000 </r>
       <r>   -13.4077     0.0000   192.0000 </r>
       <r>   -13.1226     0.0000   192.0000 </r>
       <r>   -12.8375     0.0000   192.0000 </r>
       <r>   -12.5524     0.0000   192.0000 </r>
       <r>   -12.2673     0.0000   192.0000 </r>
       <r>   -11.9821     0.0000   192.0000 </r>
       <r>   -11.6970     0.0000   192.0000 </r>
       <r>   -11.4119     0.0000   192.0000 </r>
       <r>   -11.1268     0.0000   192.0000 </r>
       <r>   -10.8417     0.0000   192.0000 </r>
       <r>   -10.5566     0.0000   192.0000 </r>
       <r>   -10.2714     0.0000   192.0000 </r>
       <r>    -9.9863     0.0000   192.0000 </r>
       <r>    -9.7012     0.0000   192.0000 </r>
       <r>    -9.4161     0.0000   192.0000 </r>
       <r>    -9.1310     0.0000   192.0000 </r>
       <r>    -8.8459     0.0000   192.0000 </r>
       <r>    -8.5607     0.0000   192.0000 </r>
       <r>    -8.2756     0.0000   192.0000 </r>
       <r>    -7.9905     0.0000   192.0000 </r>
       <r>    -7.7054     0.0000   192.0000 </r>
       <r>    -7.4203     0.0000   192.0000 </r>
       <r>    -7.1351     0.0000   192.0000 </r>
       <r>    -6.8500     0.0000   192.0000 </r>
       <r>    -6.5649     0.0000   192.0000 </r>
       <r>    -6.2798     0.0000   192.0000 </r>
       <r>    -5.9947     0.0000   192.0000 </r>
       <r>    -5.7096     0.0000   192.0000 </r>
       <r>    -5.4244     0.0000   192.0000 </r>
       <r>    -5.1393     0.0000   192.0000 </r>
       <r>    -4.8542     0.0000   192.0000 </r>
       <r>    -4.5691     0.0000   192.0000 </r>
       <r>    -4.2840     0.0000   192.0000 </r>
       <r>    -3.9989     0.0000   192.0000 </r>
       <r>    -3.7137     0.0000   192.0000 </r>
       <r>    -3.4286     0.0000   192.0000 </r>
       <r>    -3.1435    -0.0000   192.0000 </r>
       <r>    -2.8584    -0.0000   192.0000 </r>
       <r>    -2.5733    -0.0000   192.0000 </r>
       <r>    -2.2881    -0.0000   192.0000 </r>
       <r>    -2.0030    -0.0000   192.0000 </r>
       <r>    -1.7179    -0.0004   191.9999 </r>
       <r>    -1.4328    -0.0044   191.9986 </r>
       <r>    -1.1477     0.1129   192.0308 </r>
       <r>    -0.8626     1.4836   192.4539 </r>
       <r>    -0.5774     0.8783   192.7043 </r>
       <r>    -0.2923     2.8158   193.5071 </r>
       <r>    -0.0072     2.4950   194.2185 </r>
       <r>     0.2779     1.0023   194.5042 </r>
       <r>     0.5630     5.4466   196.0572 </r>
       <r>     0.8481     3.0104   196.9155 </r>
       <r>     1.1333     4.4108   198.1731 </r>
       <r>     1.4184     0.9970   198.4573 </r>
       <r>     1.7035     8.9210   201.0009 </r>
       <r>     1.9886     4.6274   202.3202 </r>
       <r>     2.2737     6.4765   204.1668 </r>
       <r>     2.5589     3.0859   205.0466 </r>
       <r>     2.8440    11.0018   208.1834 </r>
       <r>     3.1291    13.3718   211.9960 </r>
       <r>     3.4142    11.6470   215.3167 </r>
       <r>     3.6993    23.9949   222.1581 </r>
       <r>     3.9844    39.4250   233.3989 </r>
       <r>     4.2696    25.2651   240.6024 </r>
       <r>     4.5547    54.2197   256.0614 </r>
       <r>     4.8398    55.7159   271.9470 </r>
       <r>     5.1249    49.9811   286.1975 </r>
       <r>     5.4100    53.7094   301.5110 </r>
       <r>     5.6951    70.0982   321.4972 </r>
       <r>     5.9803    80.4016   344.4211 </r>
       <r>     6.2654    91.9229   370.6300 </r>
       <r>     6.5505    82.7287   394.2174 </r>
       <r>     6.8356    65.1122   412.7820 </r>
       <r>     7.1207    86.3692   437.4074 </r>
       <r>     7.4059    66.2681   456.3016 </r>
       <r>     7.6910    82.7769   479.9028 </r>
       <r>     7.9761   103.1518   509.3131 </r>
       <r>     8.2612    67.3016   528.5020 </r>
       <r>     8.5463    22.9481   535.0449 </r>
       <r>     8.8314    10.8306   538.1329 </r>
       <r>     9.1166     3.9119   539.2483 </r>
       <r>     9.4017    13.6574   543.1422 </r>
       <r>     9.6868    11.9443   546.5478 </r>
       <r>     9.9719    12.3623   550.0725 </r>
       <r>    10.2570     4.7247   551.4196 </r>
       <r>    10.5421     8.8017   553.9291 </r>
       <r>    10.8273    10.0112   556.7835 </r>
       <r>    11.1124     7.0810   558.8024 </r>
       <r>    11.3975    11.7193   562.1438 </r>
       <r>    11.6826     2.4778   562.8502 </r>
       <r>    11.9677    11.8425   566.2267 </r>
       <r>    12.2529     5.6289   567.8316 </r>
       <r>    12.5380    -0.4942   567.6907 </r>
       <r>    12.8231     5.7506   569.3303 </r>
       <r>    13.1082     8.8621   571.8570 </r>
       <r>    13.3933     3.7535   572.9272 </r>
       <r>    13.6784     1.4528   573.3414 </r>
       <r>    13.9636    10.6667   576.3827 </r>
       <r>    14.2487     7.5323   578.5303 </r>
       <r>    14.5338    10.2278   581.4464 </r>
       <r>    14.8189     7.4180   583.5614 </r>
       <r>    15.1040     8.0141   585.8464 </r>
       <r>    15.3891     9.7473   588.6255 </r>
       <r>    15.6743    10.3420   591.5742 </r>
       <r>    15.9594     6.7893   593.5099 </r>
       <r>    16.2445    11.9061   596.9046 </r>
       <r>    16.5296     8.1931   599.2406 </r>
       <r>    16.8147     3.9710   600.3728 </r>
       <r>    17.0999     7.0875   602.3935 </r>
       <r>    17.3850     9.8544   605.2032 </r>
       <r>    17.6701     5.9763   606.9071 </r>
       <r>    17.9552    11.5079   610.1882 </r>
       <r>    18.2403     7.4105   612.3011 </r>
       <r>    18.5254    13.0708   616.0278 </r>
       <r>    18.8106    18.2005   621.2171 </r>
       <r>    19.0957    10.8253   624.3036 </r>
       <r>    19.3808     9.7325   627.0785 </r>
       <r>    19.6659    13.0145   630.7892 </r>
       <r>    19.9510    13.4498   634.6239 </r>
       <r>    20.2362     2.5713   635.3571 </r>
       <r>    20.5213    15.3807   639.7424 </r>
       <r>    20.8064    11.2556   642.9515 </r>
       <r>    21.0915    10.3298   645.8967 </r>
       <r>    21.3766     4.0163   647.0419 </r>
       <r>    21.6617     3.5199   648.0455 </r>
       <r>    21.9469    -0.1554   648.0012 </r>
       <r>    22.2320    -0.0041   648.0000 </r>
       <r>    22.5171    -0.0000   648.0000 </r>
       <r>    22.8022    -0.0000   648.0000 </r>
       <r>    23.0873     0.0000   648.0000 </r>
       <r>    23.3724     0.0000   648.0000 </r>
       <r>    23.6576     0.0000   648.0000 </r>
       <r>    23.9427     0.0000   648.0000 </r>
       <r>    24.2278     0.0000   648.0000 </r>
       <r>    24.5129     0.0000   648.0000 </r>
       <r>    24.7980     0.0000   648.0000 </r>
       <r>    25.0832     0.0000   648.0000 </r>
       <r>    25.3683     0.0000   648.0000 </r>
      </set>
     </set>
    </array>
   </total>
  </dos>
 </calculation>
 <structure name="finalpos" >
  <crystal>
   <varray name="basis" >
    <v>       0.00000000       7.05000000       7.05000000 </v>
    <v>       7.05000000       0.00000000       7.05000000 </v>
    <v>       7.05000000       7.05000000       0.00000000 </v>
   </varray>
   <i name="volume">    700.80525000 </i>
   <varray name="rec_basis" >
    <v>      -0.07092199       0.07092199       0.07092199 </v>
    <v>       0.07092199      -0.07092199       0.07092199 </v>
    <v>       0.07092199       0.07092199      -0.07092199 </v>
   </varray>
  </crystal>
  <varray name="positions" >
   <v>       0.00106383      -0.00106383      -0.00106383 </v>
   <v>       0.00000000       0.00000000       0.25000000 </v>
   <v>       0.00000000       0.00000000       0.50000000 </v>
   <v>       0.00000000       0.00000000       0.75000000 </v>
   <v>       0.00000000       0.25000000       0.00000000 </v>
   <v>       0.00000000       0.25000000       0.25000000 </v>
   <v>       0.00000000       0.25000000       0.50000000 </v>
   <v>       0.00000000       0.25000000       0.75000000 </v>
   <v>       0.00000000       0.50000000       0.00000000 </v>
   <v>       0.00000000       0.50000000       0.25000000 </v>
   <v>       0.00000000       0.50000000       0.50000000 </v>
   <v>       0.00000000       0.50000000       0.75000000 </v>
   <v>       0.00000000       0.75000000       0.00000000 </v>
   <v>       0.00000000       0.75000000       0.25000000 </v>
   <v>       0.00000000       0.75000000       0.50000000 </v>
   <v>       0.00000000       0.75000000       0.75000000 </v>
   <v>       0.25000000       0.00000000       0.00000000 </v>
   <v>       0.25000000       0.00000000       0.25000000 </v>
   <v>       0.25000000       0.00000000       0.50000000 </v>
   <v>       0.25000000       0.00000000       0.75000000 </v>
   <v>       0.25000000       0.25000000       0.00000000 </v>
   <v>       0.25000000       0.25000000       0.25000000 </v>
   <v>       0.25000000       0.25000000       0.50000000 </v>
   <v>       0.25000000       0.25000000       0.75000000 </v>
   <v>       0.25000000       0.50000000       0.00000000 </v>
   <v>       0.25000000       0.50000000       0.25000000 </v>
   <v>       0.25000000       0.50000000       0.50000000 </v>
   <v>       0.25000000       0.50000000       0.75000000 </v>
   <v>       0.25000000       0.75000000       0.00000000 </v>
   <v>       0.25000000       0.75000000       0.25000000 </v>
   <v>       0.25000000       0.75000000       0.50000000 </v>
   <v>       0.25000000       0.75000000       0.75000000 </v>
   <v>       0.50000000       0.00000000       0.00000000 </v>
   <v>       0.50000000       0.00000000       0.25000000 </v>
   <v>       0.50000000       0.00000000       0.50000000 </v>
   <v>       0.50000000       0.00000000       0.75000000 </v>
   <v>       0.50000000       0.25000000       0.00000000 </v>
   <v>       0.50000000       0.25000000       0.25000000 </v>
   <v>       0.50000000       0.25000000       0.50000000 </v>
   <v>       0.50000000       0.25000000       0.75000000 </v>
   <v>       0.50000000       0.50000000       0.00000000 </v>
   <v>       0.50000000       0.50000000       0.25000000 </v>
   <v>       0.50000000       0.50000000       0.50000000 </v>
   <v>       0.50000000       0.50000000       0.75000000 </v>
   <v>       0.50000000       0.75000000       0.00000000 </v>
   <v>       0.50000000       0.75000000       0.25000000 </v>
   <v>       0.50000000       0.75000000       0.50000000 </v>
   <v>       0.50000000       0.75000000       0.75000000 </v>
   <v>       0.75000000       0.00000000       0.00000000 </v>
   <v>       0.75000000       0.00000000       0.25000000 </v>
   <v>       0.75000000       0.00000000       0.50000000 </v>
   <v>       0.75000000       0.00000000       0.75000000 </v>
   <v>       0.75000000       0.25000000       0.00000000 </v>
   <v>       0.75000000       0.25000000       0.25000000 </v>
   <v>       0.75000000       0.25000000       0.50000000 </v>
   <v>       0.75000000       0.25000000       0.75000000 </v>
   <v>       0.75000000       0.50000000       0.00000000 </v>
   <v>       0.75000000       0.50000000       0.25000000 </v>
   <v>       0.75000000       0.50000000       0.50000000 </v>
   <v>       0.75000000       0.50000000       0.75000000 </v>
   <v>       0.75000000       0.75000000       0.00000000 </v>
   <v>       0.75000000       0.75000000       0.25000000 </v>
   <v>       0.75000000       0.75000000       0.50000000 </v>
   <v>       0.75000000       0.75000000       0.75000000 </v>
  </varray>
 </structure>
</modeling>
