       N       E                     dE             d eps       ncg     rms          rms(c)
DAV:   1     0.136389466332E+05    0.13639E+05   -0.55213E+05 30328   0.186E+03
DAV:   2     0.743223229997E+03   -0.12896E+05   -0.12498E+05 25920   0.630E+02
DAV:   3    -0.369895720252E+03   -0.11131E+04   -0.91787E+03 26744   0.193E+02
DAV:   4    -0.427053822981E+03   -0.57158E+02   -0.55759E+02 27912   0.435E+01
DAV:   5    -0.427917154169E+03   -0.86333E+00   -0.86250E+00 27464   0.501E+00    0.684E+01
DAV:   6    -0.400509724482E+03    0.27407E+02   -0.65197E+02 27264   0.714E+01    0.566E+01
DAV:   7    -0.365124635560E+03    0.35385E+02   -0.13496E+02 27152   0.327E+01    0.588E+00
DAV:   8    -0.365230077441E+03   -0.10544E+00   -0.12271E+00 27032   0.224E+00    0.280E+00
DAV:   9    -0.365212958229E+03    0.17119E-01   -0.19537E-01 27856   0.757E-01    0.114E+00
DAV:  10    -0.365216446079E+03   -0.34879E-02   -0.12121E-02 28616   0.173E-01    0.265E-01
DAV:  11    -0.365218515476E+03   -0.20694E-02   -0.36221E-03 26600   0.135E-01    0.146E-01
DAV:  12    -0.365218685420E+03   -0.16994E-03   -0.62496E-04 27880   0.517E-02    0.417E-02
DAV:  13    -0.365218715843E+03   -0.30423E-04   -0.73587E-05 27640   0.155E-02    0.168E-02
DAV:  14    -0.365218704407E+03    0.11436E-04   -0.56557E-06 21728   0.574E-03    0.709E-03
DAV:  15    -0.365218690919E+03    0.13488E-04   -0.14881E-06 15208   0.296E-03    0.194E-03
DAV:  16    -0.365218689892E+03    0.10267E-05   -0.21727E-07 13656   0.125E-03    0.383E-04
DAV:  17    -0.365218690271E+03   -0.37864E-06   -0.17036E-08 13584   0.302E-04
   1 F= -.36521869E+03 E0= -.36515615E+03  d E =-.187614E+00  mag=    41.5128
 Found     1 degrees of freedom:
       N       E                     dE             d eps       ncg     rms          rms(c)
DAV:   1    -0.365146887086E+03    0.71803E-01   -0.25111E+00 62320   0.150E+01    0.437E-01
DAV:   2    -0.365218754540E+03   -0.71867E-01   -0.70221E-01 47784   0.151E+00    0.106E+00
DAV:   3    -0.365219719338E+03   -0.96480E-03   -0.25180E-02 56656   0.773E-01    0.892E-01
DAV:   4    -0.365219546349E+03    0.17299E-03   -0.40514E-03 56824   0.473E-01    0.794E-01
DAV:   5    -0.365218082054E+03    0.14643E-02   -0.11545E-03 50608   0.320E-01    0.160E-01
DAV:   6    -0.365218070859E+03    0.11196E-04   -0.21917E-04 61216   0.736E-02    0.134E-01
DAV:   7    -0.365218030641E+03    0.40218E-04   -0.53726E-05 51312   0.514E-02    0.117E-01
DAV:   8    -0.365218014016E+03    0.16625E-04   -0.55073E-05 51480   0.603E-02    0.120E-01
DAV:   9    -0.365218036277E+03   -0.22261E-04   -0.12173E-04 52112   0.987E-02    0.185E-01
DAV:  10    -0.365217930506E+03    0.10577E-03   -0.11715E-04 58144   0.912E-02    0.311E-02
DAV:  11    -0.365217937438E+03   -0.69320E-05   -0.29209E-05 62024   0.293E-02    0.565E-02
DAV:  12    -0.365217932542E+03    0.48951E-05   -0.10073E-05 50984   0.241E-02    0.230E-02
DAV:  13    -0.365217931655E+03    0.88773E-06   -0.25237E-06 28256   0.122E-02
   2 F= -.36521793E+03 E0= -.36515540E+03  d E =-.187599E+00  mag=    41.5128
       N       E                     dE             d eps       ncg     rms          rms(c)
DAV:   1    -0.364960564197E+03    0.25737E+00   -0.80775E+00 62448   0.262E+01    0.861E-01
DAV:   2    -0.365233250705E+03   -0.27269E+00   -0.25398E+00 48328   0.277E+00    0.303E+00
DAV:   3    -0.365220696670E+03    0.12554E-01   -0.11390E-01 55512   0.146E+00    0.115E+00
DAV:   4    -0.365227120933E+03   -0.64243E-02   -0.17355E-02 58544   0.101E+00    0.193E+00
DAV:   5    -0.365218610472E+03    0.85105E-02   -0.70314E-03 50496   0.754E-01    0.417E-01
DAV:   6    -0.365218394525E+03    0.21595E-03   -0.11122E-03 59504   0.188E-01    0.242E-01
DAV:   7    -0.365218320125E+03    0.74400E-04   -0.30615E-04 51648   0.116E-01    0.250E-01
DAV:   8    -0.365218171733E+03    0.14839E-03   -0.22251E-04 51368   0.120E-01    0.205E-01
DAV:   9    -0.365218271520E+03   -0.99787E-04   -0.34697E-04 51712   0.165E-01    0.322E-01
DAV:  10    -0.365218069709E+03    0.20181E-03   -0.40890E-04 58648   0.179E-01    0.260E-01
DAV:  11    -0.365217927587E+03    0.14212E-03   -0.18647E-04 57968   0.103E-01    0.372E-02
DAV:  12    -0.365217945339E+03   -0.17752E-04   -0.51753E-05 68176   0.420E-02    0.784E-02
DAV:  13    -0.365217932386E+03    0.12953E-04   -0.22432E-05 50424   0.378E-02    0.238E-02
DAV:  14    -0.365217933600E+03   -0.12136E-05   -0.48950E-06 40544   0.165E-02    0.303E-02
DAV:  15    -0.365217931626E+03    0.19734E-05   -0.23449E-06 28744   0.135E-02    0.680E-03
DAV:  16    -0.365217932098E+03   -0.47157E-06   -0.10012E-06 24120   0.748E-03
   3 F= -.36521793E+03 E0= -.36515540E+03  d E =-.187600E+00  mag=    41.5128
