 vasp.5.4.1 05Feb16 (build Oct 12 2016 17:31:35) complex                        
  
 executed on           IFC91_ompi date 2020.09.07  22:42:42
 running on    4 total cores
 distrk:  each k-point on    4 cores,    1 groups
 distr:  one band on NCORES_PER_BAND=   1 cores,    4 groups


--------------------------------------------------------------------------------------------------------


 INCAR:
 POTCAR:   PAW_PBE Ni_pv 06Sep2000                
 POTCAR:   PAW_PBE Ni_pv 06Sep2000                
  local pseudopotential read in
  partial core-charges read in
  atomic valenz-charges read in
  non local Contribution for L=           1  read in
    real space projection operators read in
  non local Contribution for L=           1  read in
    real space projection operators read in
  non local Contribution for L=           2  read in
    real space projection operators read in
  non local Contribution for L=           2  read in
    real space projection operators read in
  non local Contribution for L=           0  read in
    real space projection operators read in
  non local Contribution for L=           0  read in
    real space projection operators read in
    PAW grid and wavefunctions read in
 
   number of l-projection  operators is LMAX  =           6
   number of lm-projection operators is LMMAX =          18
 
 Optimization of the real space projectors (new method)

 maximal supplied QI-value         = 18.90
 optimisation between [QCUT,QGAM] = [  9.83, 19.65] = [ 27.04,108.16] Ry 
 Optimized for a Real-space Cutoff    1.44 Angstroem

   l    n(q)    QCUT    max X(q) W(low)/X(q) W(high)/X(q)  e(spline) 
   1      8     9.827     3.231    0.38E-04    0.39E-04    0.57E-07
   1      8     9.827     4.241    0.57E-04    0.19E-03    0.30E-06
   2      7     9.827     3.566    0.29E-04    0.66E-04    0.48E-07
   2      7     9.827    20.429    0.17E-03    0.37E-03    0.30E-06
   0      8     9.827    19.799    0.18E-04    0.76E-05    0.78E-08
   0      8     9.827    52.283    0.39E-04    0.68E-04    0.44E-07
 PAW_PBE Ni_pv 06Sep2000                :
 energy of atom  1       EATOM=-3500.3496
 kinetic energy error for atom=    0.1419 (will be added to EATOM!!)
 
 
 POSCAR: Supercell by Yi Wang                    
  positions in direct lattice
  No initial velocities read in
 exchange correlation table for  LEXCH =        8
   RHO(1)=    0.500       N(1)  =     2000
   RHO(2)=  100.500       N(2)  =     4000
 


--------------------------------------------------------------------------------------------------------


 ion  position               nearest neighbor table
   1  0.000  0.000  0.000-
   2  0.000  0.000  0.250-
   3  0.000  0.000  0.500-
   4  0.000  0.000  0.750-
   5  0.000  0.250  0.000-
   6  0.000  0.250  0.250-
   7  0.000  0.250  0.500-
   8  0.000  0.250  0.750-
   9  0.000  0.500  0.000-
  10  0.000  0.500  0.250-
  11  0.000  0.500  0.500-
  12  0.000  0.500  0.750-
  13  0.000  0.750  0.000-
  14  0.000  0.750  0.250-
  15  0.000  0.750  0.500-
  16  0.000  0.750  0.750-
  17  0.250  0.000  0.000-
  18  0.250  0.000  0.250-
  19  0.250  0.000  0.500-
  20  0.250  0.000  0.750-
  21  0.250  0.250  0.000-
  22  0.250  0.250  0.250-
  23  0.250  0.250  0.500-
  24  0.250  0.250  0.750-
  25  0.250  0.500  0.000-
  26  0.250  0.500  0.250-
  27  0.250  0.500  0.500-
  28  0.250  0.500  0.750-
  29  0.250  0.750  0.000-
  30  0.250  0.750  0.250-
  31  0.250  0.750  0.500-
  32  0.250  0.750  0.750-
  33  0.500  0.000  0.000-
  34  0.500  0.000  0.250-
  35  0.500  0.000  0.500-
  36  0.500  0.000  0.750-
  37  0.500  0.250  0.000-
  38  0.500  0.250  0.250-
  39  0.500  0.250  0.500-
  40  0.500  0.250  0.750-
  41  0.500  0.500  0.000-
  42  0.500  0.500  0.250-
  43  0.500  0.500  0.500-
  44  0.500  0.500  0.750-
  45  0.500  0.750  0.000-
  46  0.500  0.750  0.250-
  47  0.500  0.750  0.500-
  48  0.500  0.750  0.750-
  49  0.750  0.000  0.000-
  50  0.750  0.000  0.250-
  51  0.750  0.000  0.500-
  52  0.750  0.000  0.750-
  53  0.750  0.250  0.000-
  54  0.750  0.250  0.250-
  55  0.750  0.250  0.500-
  56  0.750  0.250  0.750-
  57  0.750  0.500  0.000-
  58  0.750  0.500  0.250-
  59  0.750  0.500  0.500-
  60  0.750  0.500  0.750-
  61  0.750  0.750  0.000-
  62  0.750  0.750  0.250-
  63  0.750  0.750  0.500-
  64  0.750  0.750  0.750-
 
  LATTYP: Found a face centered cubic cell.
 ALAT       =    14.5230000000
  
  Lattice vectors:
  
 A1 = (   0.0000000000,   7.2615000000,   7.2615000000)
 A2 = (   7.2615000000,   0.0000000000,   7.2615000000)
 A3 = (   7.2615000000,   7.2615000000,   0.0000000000)


Analysis of symmetry for initial positions (statically):
=====================================================================
 Subroutine PRICEL returns following result:
 
  LATTYP: Found a face centered cubic cell.
 ALAT       =     3.6307500000
  
  Lattice vectors:
  
 A1 = (   0.0000000000,   1.8153750000,   1.8153750000)
 A2 = (   1.8153750000,   0.0000000000,   1.8153750000)
 A3 = (   1.8153750000,   1.8153750000,   0.0000000000)
 
  64 primitive cells build up your supercell.
 

 Routine SETGRP: Setting up the symmetry group for a 
 face centered cubic supercell.


 Subroutine GETGRP returns: Found 48 space group operations
 (whereof 48 operations were pure point group operations)
 out of a pool of 48 trial point group operations.


The static configuration has the point symmetry O_h .


Analysis of symmetry for dynamics (positions and initial velocities):
=====================================================================
 Subroutine PRICEL returns following result:
 
  LATTYP: Found a face centered cubic cell.
 ALAT       =     3.6307500000
  
  Lattice vectors:
  
 A1 = (   0.0000000000,   1.8153750000,   1.8153750000)
 A2 = (   1.8153750000,   0.0000000000,   1.8153750000)
 A3 = (   1.8153750000,   1.8153750000,   0.0000000000)
 
  64 primitive cells build up your supercell.
 

 Routine SETGRP: Setting up the symmetry group for a 
 face centered cubic supercell.


 Subroutine GETGRP returns: Found 48 space group operations
 (whereof 48 operations were pure point group operations)
 out of a pool of 48 trial point group operations.


The dynamic configuration has the point symmetry O_h .


Analysis of structural, dynamic, and magnetic symmetry:
=====================================================================
 Subroutine PRICEL returns following result:
 
  LATTYP: Found a face centered cubic cell.
 ALAT       =     3.6307500000
  
  Lattice vectors:
  
 A1 = (   0.0000000000,   1.8153750000,   1.8153750000)
 A2 = (   1.8153750000,   0.0000000000,   1.8153750000)
 A3 = (   1.8153750000,   1.8153750000,   0.0000000000)
 
  64 primitive cells build up your supercell.
 

 Routine SETGRP: Setting up the symmetry group for a 
 face centered cubic supercell.


 Subroutine GETGRP returns: Found 48 space group operations
 (whereof 48 operations were pure point group operations)
 out of a pool of 48 trial point group operations.


The magnetic configuration has the point symmetry O_h .


 Subroutine INISYM returns: Found 48 space group operations
 (whereof 48 operations are pure point group operations),
 and found    64 'primitive' translations

 
 
 KPOINTS: Zr 15x15x15                             

Automatic generation of k-mesh.
Space group operators:
 irot       det(A)        alpha          n_x          n_y          n_z        tau_x        tau_y        tau_z
    1     1.000000     0.000000     1.000000     0.000000     0.000000     0.000000     0.000000     0.000000
    2    -1.000000     0.000000     1.000000     0.000000     0.000000     0.000000     0.000000     0.000000
    3     1.000000   120.000000    -0.577350    -0.577350    -0.577350     0.000000     0.000000     0.000000
    4    -1.000000   120.000000    -0.577350    -0.577350    -0.577350     0.000000     0.000000     0.000000
    5     1.000000   120.000000     0.577350     0.577350     0.577350     0.000000     0.000000     0.000000
    6    -1.000000   120.000000     0.577350     0.577350     0.577350     0.000000     0.000000     0.000000
    7     1.000000    90.000000     0.000000     0.000000    -1.000000     0.000000     0.000000     0.000000
    8    -1.000000    90.000000     0.000000     0.000000    -1.000000     0.000000     0.000000     0.000000
    9     1.000000   180.000000     0.000000     0.707107     0.707107     0.000000     0.000000     0.000000
   10    -1.000000   180.000000     0.000000     0.707107     0.707107     0.000000     0.000000     0.000000
   11     1.000000    90.000000     0.000000     1.000000     0.000000     0.000000     0.000000     0.000000
   12    -1.000000    90.000000     0.000000     1.000000     0.000000     0.000000     0.000000     0.000000
   13     1.000000   180.000000     0.000000     0.000000     1.000000     0.000000     0.000000     0.000000
   14    -1.000000   180.000000     0.000000     0.000000     1.000000     0.000000     0.000000     0.000000
   15     1.000000   120.000000    -0.577350     0.577350     0.577350     0.000000     0.000000     0.000000
   16    -1.000000   120.000000    -0.577350     0.577350     0.577350     0.000000     0.000000     0.000000
   17     1.000000   120.000000    -0.577350     0.577350    -0.577350     0.000000     0.000000     0.000000
   18    -1.000000   120.000000    -0.577350     0.577350    -0.577350     0.000000     0.000000     0.000000
   19     1.000000    90.000000     0.000000     0.000000     1.000000     0.000000     0.000000     0.000000
   20    -1.000000    90.000000     0.000000     0.000000     1.000000     0.000000     0.000000     0.000000
   21     1.000000    90.000000    -1.000000     0.000000     0.000000     0.000000     0.000000     0.000000
   22    -1.000000    90.000000    -1.000000     0.000000     0.000000     0.000000     0.000000     0.000000
   23     1.000000   180.000000     0.707107     0.000000     0.707107     0.000000     0.000000     0.000000
   24    -1.000000   180.000000     0.707107     0.000000     0.707107     0.000000     0.000000     0.000000
   25     1.000000   120.000000     0.577350    -0.577350     0.577350     0.000000     0.000000     0.000000
   26    -1.000000   120.000000     0.577350    -0.577350     0.577350     0.000000     0.000000     0.000000
   27     1.000000   120.000000    -0.577350    -0.577350     0.577350     0.000000     0.000000     0.000000
   28    -1.000000   120.000000    -0.577350    -0.577350     0.577350     0.000000     0.000000     0.000000
   29     1.000000   180.000000     1.000000     0.000000     0.000000     0.000000     0.000000     0.000000
   30    -1.000000   180.000000     1.000000     0.000000     0.000000     0.000000     0.000000     0.000000
   31     1.000000    90.000000     0.000000    -1.000000     0.000000     0.000000     0.000000     0.000000
   32    -1.000000    90.000000     0.000000    -1.000000     0.000000     0.000000     0.000000     0.000000
   33     1.000000   180.000000     0.707107     0.707107     0.000000     0.000000     0.000000     0.000000
   34    -1.000000   180.000000     0.707107     0.707107     0.000000     0.000000     0.000000     0.000000
   35     1.000000    90.000000     1.000000     0.000000     0.000000     0.000000     0.000000     0.000000
   36    -1.000000    90.000000     1.000000     0.000000     0.000000     0.000000     0.000000     0.000000
   37     1.000000   120.000000     0.577350    -0.577350    -0.577350     0.000000     0.000000     0.000000
   38    -1.000000   120.000000     0.577350    -0.577350    -0.577350     0.000000     0.000000     0.000000
   39     1.000000   180.000000     0.000000     1.000000     0.000000     0.000000     0.000000     0.000000
   40    -1.000000   180.000000     0.000000     1.000000     0.000000     0.000000     0.000000     0.000000
   41     1.000000   120.000000     0.577350     0.577350    -0.577350     0.000000     0.000000     0.000000
   42    -1.000000   120.000000     0.577350     0.577350    -0.577350     0.000000     0.000000     0.000000
   43     1.000000   180.000000     0.000000    -0.707107     0.707107     0.000000     0.000000     0.000000
   44    -1.000000   180.000000     0.000000    -0.707107     0.707107     0.000000     0.000000     0.000000
   45     1.000000   180.000000     0.707107    -0.707107     0.000000     0.000000     0.000000     0.000000
   46    -1.000000   180.000000     0.707107    -0.707107     0.000000     0.000000     0.000000     0.000000
   47     1.000000   180.000000     0.707107     0.000000    -0.707107     0.000000     0.000000     0.000000
   48    -1.000000   180.000000     0.707107     0.000000    -0.707107     0.000000     0.000000     0.000000
 
 Subroutine IBZKPT returns following result:
 ===========================================
 
 Found     10 irreducible k-points:
 
 Following reciprocal coordinates:
            Coordinates               Weight
  0.000000  0.000000  0.000000      1.000000
  0.200000  0.000000  0.000000      8.000000
  0.400000  0.000000  0.000000      8.000000
  0.200000  0.200000  0.000000      6.000000
  0.400000  0.200000  0.000000     24.000000
 -0.400000  0.200000  0.000000     24.000000
 -0.200000  0.200000  0.000000     12.000000
  0.400000  0.400000  0.000000      6.000000
 -0.400000  0.400000  0.000000     12.000000
 -0.400000  0.400000  0.200000     24.000000
 
 Following cartesian coordinates:
            Coordinates               Weight
  0.000000  0.000000  0.000000      1.000000
 -0.013771  0.013771  0.013771      8.000000
 -0.027543  0.027543  0.027543      8.000000
  0.000000  0.000000  0.027543      6.000000
 -0.013771  0.013771  0.041314     24.000000
  0.041314 -0.041314 -0.013771     24.000000
  0.027543 -0.027543  0.000000     12.000000
  0.000000  0.000000  0.055085      6.000000
  0.055085 -0.055085  0.000000     12.000000
  0.068856 -0.041314 -0.013771     24.000000
 
 
 Subroutine IBZKPT_HF returns following result:
 ==============================================
 
 Found    125 k-points in 1st BZ
 the following    125 k-points will be used (e.g. in the exchange kernel)
 Following reciprocal coordinates:   # in IRBZ
  0.000000  0.000000  0.000000    0.00800000   1 t-inv F
  0.200000  0.000000  0.000000    0.00800000   2 t-inv F
  0.400000  0.000000  0.000000    0.00800000   3 t-inv F
  0.200000  0.200000  0.000000    0.00800000   4 t-inv F
  0.400000  0.200000  0.000000    0.00800000   5 t-inv F
 -0.400000  0.200000  0.000000    0.00800000   6 t-inv F
 -0.200000  0.200000  0.000000    0.00800000   7 t-inv F
  0.400000  0.400000  0.000000    0.00800000   8 t-inv F
 -0.400000  0.400000  0.000000    0.00800000   9 t-inv F
 -0.400000  0.400000  0.200000    0.00800000  10 t-inv F
 -0.200000  0.000000  0.000000    0.00800000   2 t-inv F
  0.000000  0.200000  0.000000    0.00800000   2 t-inv F
  0.000000 -0.200000  0.000000    0.00800000   2 t-inv F
  0.000000  0.000000  0.200000    0.00800000   2 t-inv F
  0.000000  0.000000 -0.200000    0.00800000   2 t-inv F
  0.200000  0.200000  0.200000    0.00800000   2 t-inv F
 -0.200000 -0.200000 -0.200000    0.00800000   2 t-inv F
 -0.400000  0.000000  0.000000    0.00800000   3 t-inv F
  0.000000  0.400000  0.000000    0.00800000   3 t-inv F
  0.000000 -0.400000  0.000000    0.00800000   3 t-inv F
  0.000000  0.000000  0.400000    0.00800000   3 t-inv F
  0.000000  0.000000 -0.400000    0.00800000   3 t-inv F
  0.400000  0.400000  0.400000    0.00800000   3 t-inv F
 -0.400000 -0.400000 -0.400000    0.00800000   3 t-inv F
 -0.200000 -0.200000  0.000000    0.00800000   4 t-inv F
  0.000000  0.200000  0.200000    0.00800000   4 t-inv F
  0.000000 -0.200000 -0.200000    0.00800000   4 t-inv F
  0.200000  0.000000  0.200000    0.00800000   4 t-inv F
 -0.200000  0.000000 -0.200000    0.00800000   4 t-inv F
 -0.400000 -0.200000  0.000000    0.00800000   5 t-inv F
  0.000000  0.400000  0.200000    0.00800000   5 t-inv F
  0.000000 -0.400000 -0.200000    0.00800000   5 t-inv F
  0.200000  0.000000  0.400000    0.00800000   5 t-inv F
 -0.200000  0.000000 -0.400000    0.00800000   5 t-inv F
  0.200000  0.200000 -0.200000    0.00800000   5 t-inv F
 -0.200000 -0.200000  0.200000    0.00800000   5 t-inv F
  0.400000  0.200000  0.400000    0.00800000   5 t-inv F
 -0.400000 -0.200000 -0.400000    0.00800000   5 t-inv F
  0.200000  0.400000  0.000000    0.00800000   5 t-inv F
 -0.200000 -0.400000  0.000000    0.00800000   5 t-inv F
  0.200000 -0.200000 -0.200000    0.00800000   5 t-inv F
 -0.200000  0.200000  0.200000    0.00800000   5 t-inv F
  0.400000  0.400000  0.200000    0.00800000   5 t-inv F
 -0.400000 -0.400000 -0.200000    0.00800000   5 t-inv F
  0.000000  0.200000  0.400000    0.00800000   5 t-inv F
  0.000000 -0.200000 -0.400000    0.00800000   5 t-inv F
 -0.200000  0.200000 -0.200000    0.00800000   5 t-inv F
  0.200000 -0.200000  0.200000    0.00800000   5 t-inv F
  0.200000  0.400000  0.400000    0.00800000   5 t-inv F
 -0.200000 -0.400000 -0.400000    0.00800000   5 t-inv F
  0.400000  0.000000  0.200000    0.00800000   5 t-inv F
 -0.400000  0.000000 -0.200000    0.00800000   5 t-inv F
  0.400000 -0.200000  0.000000    0.00800000   6 t-inv F
  0.000000 -0.400000  0.200000    0.00800000   6 t-inv F
  0.000000  0.400000 -0.200000    0.00800000   6 t-inv F
  0.200000  0.000000 -0.400000    0.00800000   6 t-inv F
 -0.200000  0.000000  0.400000    0.00800000   6 t-inv F
  0.200000  0.200000  0.600000    0.00800000   6 t-inv F
 -0.200000 -0.200000 -0.600000    0.00800000   6 t-inv F
 -0.400000 -0.600000 -0.400000    0.00800000   6 t-inv F
  0.400000  0.600000  0.400000    0.00800000   6 t-inv F
  0.200000 -0.400000  0.000000    0.00800000   6 t-inv F
 -0.200000  0.400000  0.000000    0.00800000   6 t-inv F
 -0.600000 -0.200000 -0.200000    0.00800000   6 t-inv F
  0.600000  0.200000  0.200000    0.00800000   6 t-inv F
 -0.400000 -0.400000 -0.600000    0.00800000   6 t-inv F
  0.400000  0.400000  0.600000    0.00800000   6 t-inv F
  0.000000  0.200000 -0.400000    0.00800000   6 t-inv F
  0.000000 -0.200000  0.400000    0.00800000   6 t-inv F
 -0.200000 -0.600000 -0.200000    0.00800000   6 t-inv F
  0.200000  0.600000  0.200000    0.00800000   6 t-inv F
 -0.600000 -0.400000 -0.400000    0.00800000   6 t-inv F
  0.600000  0.400000  0.400000    0.00800000   6 t-inv F
 -0.400000  0.000000  0.200000    0.00800000   6 t-inv F
  0.400000  0.000000 -0.200000    0.00800000   6 t-inv F
  0.200000 -0.200000  0.000000    0.00800000   7 t-inv F
  0.000000 -0.200000  0.200000    0.00800000   7 t-inv F
  0.000000  0.200000 -0.200000    0.00800000   7 t-inv F
  0.200000  0.000000 -0.200000    0.00800000   7 t-inv F
 -0.200000  0.000000  0.200000    0.00800000   7 t-inv F
  0.200000  0.200000  0.400000    0.00800000   7 t-inv F
 -0.200000 -0.200000 -0.400000    0.00800000   7 t-inv F
 -0.200000 -0.400000 -0.200000    0.00800000   7 t-inv F
  0.200000  0.400000  0.200000    0.00800000   7 t-inv F
 -0.400000 -0.200000 -0.200000    0.00800000   7 t-inv F
  0.400000  0.200000  0.200000    0.00800000   7 t-inv F
 -0.400000 -0.400000  0.000000    0.00800000   8 t-inv F
  0.000000  0.400000  0.400000    0.00800000   8 t-inv F
  0.000000 -0.400000 -0.400000    0.00800000   8 t-inv F
  0.400000  0.000000  0.400000    0.00800000   8 t-inv F
 -0.400000  0.000000 -0.400000    0.00800000   8 t-inv F
  0.400000 -0.400000  0.000000    0.00800000   9 t-inv F
  0.000000 -0.400000  0.400000    0.00800000   9 t-inv F
  0.000000  0.400000 -0.400000    0.00800000   9 t-inv F
  0.400000  0.000000 -0.400000    0.00800000   9 t-inv F
 -0.400000  0.000000  0.400000    0.00800000   9 t-inv F
  0.400000  0.400000  0.800000    0.00800000   9 t-inv F
 -0.400000 -0.400000 -0.800000    0.00800000   9 t-inv F
 -0.400000 -0.800000 -0.400000    0.00800000   9 t-inv F
  0.400000  0.800000  0.400000    0.00800000   9 t-inv F
 -0.800000 -0.400000 -0.400000    0.00800000   9 t-inv F
  0.800000  0.400000  0.400000    0.00800000   9 t-inv F
  0.400000 -0.400000 -0.200000    0.00800000  10 t-inv F
  0.200000 -0.400000  0.400000    0.00800000  10 t-inv F
 -0.200000  0.400000 -0.400000    0.00800000  10 t-inv F
  0.400000  0.200000 -0.400000    0.00800000  10 t-inv F
 -0.400000 -0.200000  0.400000    0.00800000  10 t-inv F
  0.400000  0.200000  0.800000    0.00800000  10 t-inv F
 -0.400000 -0.200000 -0.800000    0.00800000  10 t-inv F
 -0.400000 -0.800000 -0.600000    0.00800000  10 t-inv F
  0.400000  0.800000  0.600000    0.00800000  10 t-inv F
  0.200000  0.600000 -0.200000    0.00800000  10 t-inv F
 -0.200000 -0.600000  0.200000    0.00800000  10 t-inv F
  0.200000 -0.600000 -0.200000    0.00800000  10 t-inv F
 -0.200000  0.600000  0.200000    0.00800000  10 t-inv F
 -0.800000 -0.200000 -0.400000    0.00800000  10 t-inv F
  0.800000  0.200000  0.400000    0.00800000  10 t-inv F
 -0.600000 -0.400000 -0.800000    0.00800000  10 t-inv F
  0.600000  0.400000  0.800000    0.00800000  10 t-inv F
 -0.200000  0.200000  0.600000    0.00800000  10 t-inv F
  0.200000 -0.200000 -0.600000    0.00800000  10 t-inv F
 -0.400000 -0.800000 -0.200000    0.00800000  10 t-inv F
  0.400000  0.800000  0.200000    0.00800000  10 t-inv F
 -0.800000 -0.600000 -0.400000    0.00800000  10 t-inv F
  0.800000  0.600000  0.400000    0.00800000  10 t-inv F


--------------------------------------------------------------------------------------------------------




 Dimension of arrays:
   k-points           NKPTS =     10   k-points in BZ     NKDIM =     10   number of bands    NBANDS=    648
   number of dos      NEDOS =    301   number of ions     NIONS =     64
   non local maximal  LDIM  =      6   non local SUM 2l+1 LMDIM =     18
   total plane-waves  NPLWV = 262144
   max r-space proj   IRMAX =   4326   max aug-charges    IRDMAX=   7757
   dimension x,y,z NGX =    64 NGY =   64 NGZ =   64
   dimension x,y,z NGXF=   128 NGYF=  128 NGZF=  128
   support grid    NGXF=   128 NGYF=  128 NGZF=  128
   ions per type =              64
 NGX,Y,Z   is equivalent  to a cutoff of  10.36, 10.36, 10.36 a.u.
 NGXF,Y,Z  is equivalent  to a cutoff of  20.72, 20.72, 20.72 a.u.


 I would recommend the setting:
   dimension x,y,z NGX =    64 NGY =   64 NGZ =   64
 SYSTEM =  phonon of Zr bcc - omiga                
 POSCAR =  Supercell by Yi Wang                    

 Startparameter for this run:
   NWRITE =      0    write-flag & timer
   PREC   = a         normal or accurate (medium, high low for compatibility)
   ISTART =      0    job   : 0-new  1-cont  2-samecut
   ICHARG =      2    charge: 1-file 2-atom 10-const
   ISPIN  =      2    spin polarized calculation?
   LNONCOLLINEAR =      F non collinear calculations
   LSORBIT =      F    spin-orbit coupling
   INIWAV =      1    electr: 0-lowe 1-rand  2-diag
   LASPH  =      F    aspherical Exc in radial PAW
   METAGGA=      F    non-selfconsistent MetaGGA calc.

 Electronic Relaxation 1
   ENCUT  =  367.9 eV  27.04 Ry    5.20 a.u.  16.06 16.06 16.06*2*pi/ulx,y,z
   ENINI  =  367.9     initial cutoff
   ENAUG  =  703.4 eV  augmentation charge cutoff
   NELM   =     60;   NELMIN=  2; NELMDL=  0     # of ELM steps 
   EDIFF  = 0.1E-05   stopping-criterion for ELM
   LREAL  =      T    real-space projection
   NLSPLINE    = F    spline interpolate recip. space projectors
   LCOMPAT=      F    compatible to vasp.4.4
   GGA_COMPAT  = T    GGA compatible to vasp.4.4-vasp.4.6
   LMAXPAW     = -100 max onsite density
   LMAXMIX     =    2 max onsite mixed and CHGCAR
   VOSKOWN=      0    Vosko Wilk Nusair interpolation
   ROPT   =   -0.00025
 Ionic relaxation
   EDIFFG = 0.1E-04   stopping-criterion for IOM
   NSW    =    805    number of steps for IOM
   NBLOCK =      1;   KBLOCK =      1    inner block; outer block 
   IBRION =      6    ionic relax: 0-MD 1-quasi-New 2-CG
   NFREE  =      2    steps in history (QN), initial steepest desc. (CG)
   ISIF   =      2    stress and relaxation
   IWAVPR =     11    prediction:  0-non 1-charg 2-wave 3-comb
   ISYM   =      2    0-nonsym 1-usesym 2-fastsym
   LCORR  =      T    Harris-Foulkes like correction to forces

   POTIM  = 0.5000    time-step for ionic-motion
   TEIN   =    0.0    initial temperature
   TEBEG  =    0.0;   TEEND  =   0.0 temperature during run
   SMASS  =  -3.00    Nose mass-parameter (am)
   estimated Nose-frequenzy (Omega)   =  0.10E-29 period in steps =****** mass=  -0.241E-26a.u.
   SCALEE = 1.0000    scale energy and forces
   NPACO  =    256;   APACO  = 16.0  distance and # of slots for P.C.
   PSTRESS=    0.0 pullay stress

  Mass of Ions in am
   POMASS =  58.69
  Ionic Valenz
   ZVAL   =  16.00
  Atomic Wigner-Seitz radii
   RWIGS  =  -1.00
  virtual crystal weights 
   VCA    =   1.00
   NELECT =    1024.0000    total number of electrons
   NUPDOWN=      -1.0000    fix difference up-down

 DOS related values:
   EMIN   =  10.00;   EMAX   =-10.00  energy-range for DOS
   EFERMI =   0.00
   ISMEAR =     1;   SIGMA  =   0.20  broadening in eV -4-tet -1-fermi 0-gaus

 Electronic relaxation 2 (details)
   IALGO  =     38    algorithm
   LDIAG  =      T    sub-space diagonalisation (order eigenvalues)
   LSUBROT=      F    optimize rotation matrix (better conditioning)
   TURBO    =      0    0=normal 1=particle mesh
   IRESTART =      0    0=no restart 2=restart with 2 vectors
   NREBOOT  =      0    no. of reboots
   NMIN     =      0    reboot dimension
   EREF     =   0.00    reference energy to select bands
   IMIX   =      4    mixing-type and parameters
     AMIX     =   0.40;   BMIX     =  1.00
     AMIX_MAG =   1.60;   BMIX_MAG =  1.00
     AMIN     =   0.10
     WC   =   100.;   INIMIX=   1;  MIXPRE=   1;  MAXMIX= -45

 Intra band minimization:
   WEIMIN = 0.0010     energy-eigenvalue tresh-hold
   EBREAK =  0.39E-09  absolut break condition
   DEPER  =   0.30     relativ break condition  

   TIME   =   0.40     timestep for ELM

  volume/ion in A,a.u.               =      11.97        80.75
  Fermi-wavevector in a.u.,A,eV,Ry     =   1.803593  3.408296 44.259027  3.252947
  Thomas-Fermi vector in A             =   2.863671
 
 Write flags
   LWAVE  =      T    write WAVECAR
   LCHARG =      T    write CHGCAR
   LVTOT  =      F    write LOCPOT, total local potential
   LVHAR  =      F    write LOCPOT, Hartree potential only
   LELF   =      F    write electronic localiz. function (ELF)
   LORBIT =      0    0 simple, 1 ext, 2 COOP (PROOUT)


 Dipole corrections
   LMONO  =      F    monopole corrections only (constant potential shift)
   LDIPOL =      F    correct potential (dipole corrections)
   IDIPOL =      0    1-x, 2-y, 3-z, 4-all directions 
   EPSILON=  1.0000000 bulk dielectric constant

 Exchange correlation treatment:
   GGA     =    --    GGA type
   LEXCH   =     8    internal setting for exchange type
   VOSKOWN=      0    Vosko Wilk Nusair interpolation
   LHFCALC =     F    Hartree Fock is set to
   LHFONE  =     F    Hartree Fock one center treatment
   AEXX    =    0.0000 exact exchange contribution

 Linear response parameters
   LEPSILON=     F    determine dielectric tensor
   LRPA    =     F    only Hartree local field effects (RPA)
   LNABLA  =     F    use nabla operator in PAW spheres
   LVEL    =     F    velocity operator in full k-point grid
   LINTERFAST=   F  fast interpolation
   KINTER  =     0    interpolate to denser k-point grid
   CSHIFT  =0.1000    complex shift for real part using Kramers Kronig
   OMEGAMAX=  -1.0    maximum frequency
   DEG_THRESHOLD= 0.2000000E-02 threshold for treating states as degnerate
   RTIME   =    0.100 relaxation time in fs

 Orbital magnetization related:
   ORBITALMAG=     F  switch on orbital magnetization
   LCHIMAG   =     F  perturbation theory with respect to B field
   DQ        =  0.001000  dq finite difference perturbation B field



--------------------------------------------------------------------------------------------------------


 finite differences with symmetry
 charge density and potential will be updated during run
 spin polarized calculation
 Variant of blocked Davidson
 Davidson routine will perform the subspace rotation
 perform sub-space diagonalisation
    after iterative eigenvector-optimisation
 modified Broyden-mixing scheme, WC =      100.0
 initial mixing is a Kerker type mixing with AMIX =  0.4000 and BMIX =      1.0000
 Hartree-type preconditioning will be used
 using additional bands          136
 real space projection scheme for non local part
 use partial core corrections
 calculate Harris-corrections to forces 
   (improved forces if not selfconsistent)
 use gradient corrections 
 use of overlap-Matrix (Vanderbilt PP)
 Methfessel and Paxton  Order N= 1 SIGMA  =   0.20


--------------------------------------------------------------------------------------------------------


  energy-cutoff  :      367.94
  volume of cell :      765.79
      direct lattice vectors                 reciprocal lattice vectors
     0.000000000  7.261500000  7.261500000    -0.068856297  0.068856297  0.068856297
     7.261500000  0.000000000  7.261500000     0.068856297 -0.068856297  0.068856297
     7.261500000  7.261500000  0.000000000     0.068856297  0.068856297 -0.068856297

  length of vectors
    10.269311783 10.269311783 10.269311783     0.119262605  0.119262605  0.119262605


 
 k-points in units of 2pi/SCALE and weight: Zr 15x15x15                             
   0.00000000  0.00000000  0.00000000       0.008
  -0.01377126  0.01377126  0.01377126       0.064
  -0.02754252  0.02754252  0.02754252       0.064
   0.00000000  0.00000000  0.02754252       0.048
  -0.01377126  0.01377126  0.04131378       0.192
   0.04131378 -0.04131378 -0.01377126       0.192
   0.02754252 -0.02754252  0.00000000       0.096
   0.00000000  0.00000000  0.05508504       0.048
   0.05508504 -0.05508504  0.00000000       0.096
   0.06885630 -0.04131378 -0.01377126       0.192
 
 k-points in reciprocal lattice and weights: Zr 15x15x15                             
   0.00000000  0.00000000  0.00000000       0.008
   0.20000000  0.00000000  0.00000000       0.064
   0.40000000  0.00000000  0.00000000       0.064
   0.20000000  0.20000000  0.00000000       0.048
   0.40000000  0.20000000  0.00000000       0.192
  -0.40000000  0.20000000  0.00000000       0.192
  -0.20000000  0.20000000  0.00000000       0.096
   0.40000000  0.40000000  0.00000000       0.048
  -0.40000000  0.40000000  0.00000000       0.096
  -0.40000000  0.40000000  0.20000000       0.192
 
 position of ions in fractional coordinates (direct lattice) 
   0.00000000  0.00000000  0.00000000
   0.00000000  0.00000000  0.25000000
   0.00000000  0.00000000  0.50000000
   0.00000000  0.00000000  0.75000000
   0.00000000  0.25000000  0.00000000
   0.00000000  0.25000000  0.25000000
   0.00000000  0.25000000  0.50000000
   0.00000000  0.25000000  0.75000000
   0.00000000  0.50000000  0.00000000
   0.00000000  0.50000000  0.25000000
   0.00000000  0.50000000  0.50000000
   0.00000000  0.50000000  0.75000000
   0.00000000  0.75000000  0.00000000
   0.00000000  0.75000000  0.25000000
   0.00000000  0.75000000  0.50000000
   0.00000000  0.75000000  0.75000000
   0.25000000  0.00000000  0.00000000
   0.25000000  0.00000000  0.25000000
   0.25000000  0.00000000  0.50000000
   0.25000000  0.00000000  0.75000000
   0.25000000  0.25000000  0.00000000
   0.25000000  0.25000000  0.25000000
   0.25000000  0.25000000  0.50000000
   0.25000000  0.25000000  0.75000000
   0.25000000  0.50000000  0.00000000
   0.25000000  0.50000000  0.25000000
   0.25000000  0.50000000  0.50000000
   0.25000000  0.50000000  0.75000000
   0.25000000  0.75000000  0.00000000
   0.25000000  0.75000000  0.25000000
   0.25000000  0.75000000  0.50000000
   0.25000000  0.75000000  0.75000000
   0.50000000  0.00000000  0.00000000
   0.50000000  0.00000000  0.25000000
   0.50000000  0.00000000  0.50000000
   0.50000000  0.00000000  0.75000000
   0.50000000  0.25000000  0.00000000
   0.50000000  0.25000000  0.25000000
   0.50000000  0.25000000  0.50000000
   0.50000000  0.25000000  0.75000000
   0.50000000  0.50000000  0.00000000
   0.50000000  0.50000000  0.25000000
   0.50000000  0.50000000  0.50000000
   0.50000000  0.50000000  0.75000000
   0.50000000  0.75000000  0.00000000
   0.50000000  0.75000000  0.25000000
   0.50000000  0.75000000  0.50000000
   0.50000000  0.75000000  0.75000000
   0.75000000  0.00000000  0.00000000
   0.75000000  0.00000000  0.25000000
   0.75000000  0.00000000  0.50000000
   0.75000000  0.00000000  0.75000000
   0.75000000  0.25000000  0.00000000
   0.75000000  0.25000000  0.25000000
   0.75000000  0.25000000  0.50000000
   0.75000000  0.25000000  0.75000000
   0.75000000  0.50000000  0.00000000
   0.75000000  0.50000000  0.25000000
   0.75000000  0.50000000  0.50000000
   0.75000000  0.50000000  0.75000000
   0.75000000  0.75000000  0.00000000
   0.75000000  0.75000000  0.25000000
   0.75000000  0.75000000  0.50000000
   0.75000000  0.75000000  0.75000000
 
 position of ions in cartesian coordinates  (Angst):
   0.00000000  0.00000000  0.00000000
   1.81537500  1.81537500  0.00000000
   3.63075000  3.63075000  0.00000000
   5.44612500  5.44612500  0.00000000
   1.81537500  0.00000000  1.81537500
   3.63075000  1.81537500  1.81537500
   5.44612500  3.63075000  1.81537500
   7.26150000  5.44612500  1.81537500
   3.63075000  0.00000000  3.63075000
   5.44612500  1.81537500  3.63075000
   7.26150000  3.63075000  3.63075000
   9.07687500  5.44612500  3.63075000
   5.44612500  0.00000000  5.44612500
   7.26150000  1.81537500  5.44612500
   9.07687500  3.63075000  5.44612500
  10.89225000  5.44612500  5.44612500
   0.00000000  1.81537500  1.81537500
   1.81537500  3.63075000  1.81537500
   3.63075000  5.44612500  1.81537500
   5.44612500  7.26150000  1.81537500
   1.81537500  1.81537500  3.63075000
   3.63075000  3.63075000  3.63075000
   5.44612500  5.44612500  3.63075000
   7.26150000  7.26150000  3.63075000
   3.63075000  1.81537500  5.44612500
   5.44612500  3.63075000  5.44612500
   7.26150000  5.44612500  5.44612500
   9.07687500  7.26150000  5.44612500
   5.44612500  1.81537500  7.26150000
   7.26150000  3.63075000  7.26150000
   9.07687500  5.44612500  7.26150000
  10.89225000  7.26150000  7.26150000
   0.00000000  3.63075000  3.63075000
   1.81537500  5.44612500  3.63075000
   3.63075000  7.26150000  3.63075000
   5.44612500  9.07687500  3.63075000
   1.81537500  3.63075000  5.44612500
   3.63075000  5.44612500  5.44612500
   5.44612500  7.26150000  5.44612500
   7.26150000  9.07687500  5.44612500
   3.63075000  3.63075000  7.26150000
   5.44612500  5.44612500  7.26150000
   7.26150000  7.26150000  7.26150000
   9.07687500  9.07687500  7.26150000
   5.44612500  3.63075000  9.07687500
   7.26150000  5.44612500  9.07687500
   9.07687500  7.26150000  9.07687500
  10.89225000  9.07687500  9.07687500
   0.00000000  5.44612500  5.44612500
   1.81537500  7.26150000  5.44612500
   3.63075000  9.07687500  5.44612500
   5.44612500 10.89225000  5.44612500
   1.81537500  5.44612500  7.26150000
   3.63075000  7.26150000  7.26150000
   5.44612500  9.07687500  7.26150000
   7.26150000 10.89225000  7.26150000
   3.63075000  5.44612500  9.07687500
   5.44612500  7.26150000  9.07687500
   7.26150000  9.07687500  9.07687500
   9.07687500 10.89225000  9.07687500
   5.44612500  5.44612500 10.89225000
   7.26150000  7.26150000 10.89225000
   9.07687500  9.07687500 10.89225000
  10.89225000 10.89225000 10.89225000
 


--------------------------------------------------------------------------------------------------------


 k-point  1 :   0.0000 0.0000 0.0000  plane waves:   12195
 k-point  2 :   0.2000 0.0000 0.0000  plane waves:   12251
 k-point  3 :   0.4000 0.0000 0.0000  plane waves:   12263
 k-point  4 :   0.2000 0.2000 0.0000  plane waves:   12203
 k-point  5 :   0.4000 0.2000 0.0000  plane waves:   12297
 k-point  6 :  -0.4000 0.2000 0.0000  plane waves:   12237
 k-point  7 :  -0.2000 0.2000 0.0000  plane waves:   12286
 k-point  8 :   0.4000 0.4000 0.0000  plane waves:   12302
 k-point  9 :  -0.4000 0.4000 0.0000  plane waves:   12282
 k-point 10 :  -0.4000 0.4000 0.2000  plane waves:   12261

 maximum and minimum number of plane-waves per node :     12302    12195

 maximum number of plane-waves:     12302
 maximum index in each direction: 
   IXMAX=   16   IYMAX=   16   IZMAX=   16
   IXMIN=  -16   IYMIN=  -16   IZMIN=  -16

 WARNING: aliasing errors must be expected set NGX to  66 to avoid them
 WARNING: aliasing errors must be expected set NGY to  66 to avoid them
 WARNING: aliasing errors must be expected set NGZ to  66 to avoid them
 aliasing errors are usually negligible using standard VASP settings
 and one can safely disregard these warnings

 serial   3D FFT for wavefunctions
 parallel 3D FFT for charge:
    minimum data exchange during FFTs selected (reduces bandwidth)


 total amount of memory used by VASP on root node   853893. kBytes
========================================================================

   base      :      30000. kBytes
   nonlr-proj:      46103. kBytes
   fftplans  :      18931. kBytes
   grid      :      59310. kBytes
   one-center:       1990. kBytes
   wavefun   :     697559. kBytes
 
     INWAV:  cpu time    0.0000: real time    0.0000
 Broyden mixing: mesh for mixing (old mesh)
   NGX = 33   NGY = 33   NGZ = 33
  (NGX  =128   NGY  =128   NGZ  =128)
  gives a total of  35937 points

 initial charge density was supplied:
 charge density of overlapping atoms calculated
 number of electron    1024.0000000 magnetization      64.0000000
 keeping initial charge density in first step


--------------------------------------------------------------------------------------------------------


 Maximum index for non-local projection operator         4093
 Maximum index for augmentation-charges         1875 (set IRDMAX)


--------------------------------------------------------------------------------------------------------


 First call to EWALD:  gamma=   0.194
 Maximum number of real-space cells 3x 3x 3
 Maximum number of reciprocal cells 3x 3x 3

 FEWALD executed in parallel
    FEWALD:  cpu time    0.0080: real time    0.0068


----------------------------------------- Iteration    1(   1)  ---------------------------------------


    POTLOK:  cpu time    0.6579: real time    0.6569
    SETDIJ:  cpu time    0.1010: real time    0.1008
     EDDAV:  cpu time  429.3937: real time  429.0949
       DOS:  cpu time    0.0100: real time    0.0092
    --------------------------------------------
      LOOP:  cpu time  430.1626: real time  429.8649

 eigenvalue-minimisations  : 30328
 total energy-change (2. order) : 0.1363895E+05  (-0.5521324E+05)
 number of electron    1024.0000000 magnetization      64.0000000
 augmentation part     1024.0000000 magnetization      64.0000000

 Free energy of the ion-electron system (eV)
  ---------------------------------------------------
  alpha Z        PSCENC =      9010.57505126
  Ewald energy   TEWEN  =   -148962.18054694
  -Hartree energ DENC   =    -64548.20625185
  -exchange      EXHF   =         0.00000000
  -V(xc)+E(xc)   XCENC  =      5698.57200584
  PAW double counting   =    172361.15642774  -181272.45834873
  entropy T*S    EENTRO =        -0.00708533
  eigenvalues    EBANDS =     -2661.79604944
  atomic energy  EATOM  =    224013.29143063
  Solvation  Ediel_sol  =         0.00000000
  ---------------------------------------------------
  free energy    TOTEN  =     13638.94663318 eV

  energy without entropy =    13638.95371850  energy(sigma->0) =    13638.94899495


--------------------------------------------------------------------------------------------------------




----------------------------------------- Iteration    1(   2)  ---------------------------------------


     EDDAV:  cpu time  397.2656: real time  396.9427
       DOS:  cpu time    0.0090: real time    0.0097
    --------------------------------------------
      LOOP:  cpu time  397.2746: real time  396.9530

 eigenvalue-minimisations  : 25920
 total energy-change (2. order) :-0.1289572E+05  (-0.1249779E+05)
 number of electron    1024.0000000 magnetization      64.0000000
 augmentation part     1024.0000000 magnetization      64.0000000

 Free energy of the ion-electron system (eV)
  ---------------------------------------------------
  alpha Z        PSCENC =      9010.57505126
  Ewald energy   TEWEN  =   -148962.18054694
  -Hartree energ DENC   =    -64548.20625185
  -exchange      EXHF   =         0.00000000
  -V(xc)+E(xc)   XCENC  =      5698.57200584
  PAW double counting   =    172361.15642774  -181272.45834873
  entropy T*S    EENTRO =         0.01033730
  eigenvalues    EBANDS =    -15557.53687526
  atomic energy  EATOM  =    224013.29143063
  Solvation  Ediel_sol  =         0.00000000
  ---------------------------------------------------
  free energy    TOTEN  =       743.22323000 eV

  energy without entropy =      743.21289269  energy(sigma->0) =      743.21978423


--------------------------------------------------------------------------------------------------------




----------------------------------------- Iteration    1(   3)  ---------------------------------------


     EDDAV:  cpu time  401.0440: real time  400.7190
       DOS:  cpu time    0.0100: real time    0.0106
    --------------------------------------------
      LOOP:  cpu time  401.0560: real time  400.7302

 eigenvalue-minimisations  : 26744
 total energy-change (2. order) :-0.1113119E+04  (-0.9178670E+03)
 number of electron    1024.0000000 magnetization      64.0000000
 augmentation part     1024.0000000 magnetization      64.0000000

 Free energy of the ion-electron system (eV)
  ---------------------------------------------------
  alpha Z        PSCENC =      9010.57505126
  Ewald energy   TEWEN  =   -148962.18054694
  -Hartree energ DENC   =    -64548.20625185
  -exchange      EXHF   =         0.00000000
  -V(xc)+E(xc)   XCENC  =      5698.57200584
  PAW double counting   =    172361.15642774  -181272.45834873
  entropy T*S    EENTRO =         0.04162737
  eigenvalues    EBANDS =    -16670.68711557
  atomic energy  EATOM  =    224013.29143063
  Solvation  Ediel_sol  =         0.00000000
  ---------------------------------------------------
  free energy    TOTEN  =      -369.89572025 eV

  energy without entropy =     -369.93734762  energy(sigma->0) =     -369.90959604


--------------------------------------------------------------------------------------------------------




----------------------------------------- Iteration    1(   4)  ---------------------------------------


     EDDAV:  cpu time  402.9497: real time  402.6224
       DOS:  cpu time    0.0100: real time    0.0106
    --------------------------------------------
      LOOP:  cpu time  402.9597: real time  402.6335

 eigenvalue-minimisations  : 27912
 total energy-change (2. order) :-0.5715810E+02  (-0.5575938E+02)
 number of electron    1024.0000000 magnetization      64.0000000
 augmentation part     1024.0000000 magnetization      64.0000000

 Free energy of the ion-electron system (eV)
  ---------------------------------------------------
  alpha Z        PSCENC =      9010.57505126
  Ewald energy   TEWEN  =   -148962.18054694
  -Hartree energ DENC   =    -64548.20625185
  -exchange      EXHF   =         0.00000000
  -V(xc)+E(xc)   XCENC  =      5698.57200584
  PAW double counting   =    172361.15642774  -181272.45834873
  entropy T*S    EENTRO =         0.12115646
  eigenvalues    EBANDS =    -16727.92474739
  atomic energy  EATOM  =    224013.29143063
  Solvation  Ediel_sol  =         0.00000000
  ---------------------------------------------------
  free energy    TOTEN  =      -427.05382298 eV

  energy without entropy =     -427.17497944  energy(sigma->0) =     -427.09420847


--------------------------------------------------------------------------------------------------------




----------------------------------------- Iteration    1(   5)  ---------------------------------------


     EDDAV:  cpu time  435.5958: real time11700.5971
       DOS:  cpu time    0.0090: real time    0.0102
    CHARGE:  cpu time   21.9267: real time   21.9316
    MIXING:  cpu time    0.0130: real time    0.0135
    --------------------------------------------
      LOOP:  cpu time  457.5454: real time11722.5532

 eigenvalue-minimisations  : 27464
 total energy-change (2. order) :-0.8633312E+00  (-0.8624983E+00)
 number of electron    1024.0006170 magnetization      59.6572306
 augmentation part      572.6567173 magnetization      47.1259214

 Broyden mixing:
  rms(total) = 0.68416E+01    rms(broyden)= 0.68394E+01
  rms(prec ) = 0.92485E+01
  weight for this iteration     100.00

 Free energy of the ion-electron system (eV)
  ---------------------------------------------------
  alpha Z        PSCENC =      9010.57505126
  Ewald energy   TEWEN  =   -148962.18054694
  -Hartree energ DENC   =    -64548.20625185
  -exchange      EXHF   =         0.00000000
  -V(xc)+E(xc)   XCENC  =      5698.57200584
  PAW double counting   =    172361.15642774  -181272.45834873
  entropy T*S    EENTRO =         0.12217112
  eigenvalues    EBANDS =    -16728.78909324
  atomic energy  EATOM  =    224013.29143063
  Solvation  Ediel_sol  =         0.00000000
  ---------------------------------------------------
  free energy    TOTEN  =      -427.91715417 eV

  energy without entropy =     -428.03932529  energy(sigma->0) =     -427.95787787


--------------------------------------------------------------------------------------------------------




----------------------------------------- Iteration    1(   6)  ---------------------------------------


    POTLOK:  cpu time    0.6749: real time    0.6751
    SETDIJ:  cpu time    0.1040: real time    0.1037
     EDDAV:  cpu time  477.6164: real time  477.6203
       DOS:  cpu time    0.0110: real time    0.0102
    CHARGE:  cpu time   22.9605: real time   22.9718
    MIXING:  cpu time    0.0140: real time    0.0134
    --------------------------------------------
      LOOP:  cpu time  501.3828: real time  501.3958

 eigenvalue-minimisations  : 27264
 total energy-change (2. order) : 0.2740743E+02  (-0.6519710E+02)
 number of electron    1024.0006852 magnetization      52.2929067
 augmentation part      633.2106150 magnetization      47.9756587

 Broyden mixing:
  rms(total) = 0.56620E+01    rms(broyden)= 0.56616E+01
  rms(prec ) = 0.70600E+01
  weight for this iteration     100.00

 eigenvalues of (default mixing * dielectric matrix)
  average eigenvalue GAMMA=   0.5145
  0.5145

 Free energy of the ion-electron system (eV)
  ---------------------------------------------------
  alpha Z        PSCENC =      9010.57505126
  Ewald energy   TEWEN  =   -148962.18054694
  -Hartree energ DENC   =    -61225.83156314
  -exchange      EXHF   =         0.00000000
  -V(xc)+E(xc)   XCENC  =      5573.05241222
  PAW double counting   =    167385.38415113  -175969.55325945
  entropy T*S    EENTRO =        -0.35530209
  eigenvalues    EBANDS =    -20224.89209811
  atomic energy  EATOM  =    224013.29143063
  Solvation  Ediel_sol  =         0.00000000
  ---------------------------------------------------
  free energy    TOTEN  =      -400.50972448 eV

  energy without entropy =     -400.15442239  energy(sigma->0) =     -400.39129045


--------------------------------------------------------------------------------------------------------




----------------------------------------- Iteration    1(   7)  ---------------------------------------


    POTLOK:  cpu time    0.7069: real time    0.7066
    SETDIJ:  cpu time    0.0980: real time    0.0975
     EDDAV:  cpu time  478.1253: real time  478.1866
       DOS:  cpu time    0.0100: real time    0.0104
    CHARGE:  cpu time   21.7847: real time   21.7799
    MIXING:  cpu time    0.0150: real time    0.0146
    --------------------------------------------
      LOOP:  cpu time  500.7399: real time  500.7965

 eigenvalue-minimisations  : 27152
 total energy-change (2. order) : 0.3538509E+02  (-0.1349558E+02)
 number of electron    1024.0006550 magnetization      45.0638938
 augmentation part      606.4919736 magnetization      37.0025497

 Broyden mixing:
  rms(total) = 0.58837E+00    rms(broyden)= 0.58782E+00
  rms(prec ) = 0.68964E+00
  weight for this iteration     100.00

 eigenvalues of (default mixing * dielectric matrix)
  average eigenvalue GAMMA=   0.8255
  1.0887  0.5623

 Free energy of the ion-electron system (eV)
  ---------------------------------------------------
  alpha Z        PSCENC =      9010.57505126
  Ewald energy   TEWEN  =   -148962.18054694
  -Hartree energ DENC   =    -62492.70836499
  -exchange      EXHF   =         0.00000000
  -V(xc)+E(xc)   XCENC  =      5619.88156768
  PAW double counting   =    170049.93727131  -178915.52843288
  entropy T*S    EENTRO =        -0.20935069
  eigenvalues    EBANDS =    -18688.18326095
  atomic energy  EATOM  =    224013.29143063
  Solvation  Ediel_sol  =         0.00000000
  ---------------------------------------------------
  free energy    TOTEN  =      -365.12463556 eV

  energy without entropy =     -364.91528487  energy(sigma->0) =     -365.05485200


--------------------------------------------------------------------------------------------------------




----------------------------------------- Iteration    1(   8)  ---------------------------------------


    POTLOK:  cpu time    0.7099: real time    0.7086
    SETDIJ:  cpu time    0.0980: real time    0.0980
     EDDAV:  cpu time  471.6023: real time  471.6840
       DOS:  cpu time    0.0100: real time    0.0104
    CHARGE:  cpu time   23.1695: real time   23.1833
    MIXING:  cpu time    0.0150: real time    0.0155
    --------------------------------------------
      LOOP:  cpu time  495.6047: real time  495.7007

 eigenvalue-minimisations  : 27032
 total energy-change (2. order) :-0.1054419E+00  (-0.1227103E+00)
 number of electron    1024.0006546 magnetization      40.9215743
 augmentation part      606.0930412 magnetization      34.0881876

 Broyden mixing:
  rms(total) = 0.28031E+00    rms(broyden)= 0.28026E+00
  rms(prec ) = 0.35726E+00
  weight for this iteration     100.00

 eigenvalues of (default mixing * dielectric matrix)
  average eigenvalue GAMMA=   1.0919
  0.5696  0.9283  1.7777

 Free energy of the ion-electron system (eV)
  ---------------------------------------------------
  alpha Z        PSCENC =      9010.57505126
  Ewald energy   TEWEN  =   -148962.18054694
  -Hartree energ DENC   =    -62370.91008544
  -exchange      EXHF   =         0.00000000
  -V(xc)+E(xc)   XCENC  =      5615.94667657
  PAW double counting   =    170599.06729635  -179563.81580441
  entropy T*S    EENTRO =        -0.18782506
  eigenvalues    EBANDS =    -18707.01627039
  atomic energy  EATOM  =    224013.29143063
  Solvation  Ediel_sol  =         0.00000000
  ---------------------------------------------------
  free energy    TOTEN  =      -365.23007744 eV

  energy without entropy =     -365.04225238  energy(sigma->0) =     -365.16746909


--------------------------------------------------------------------------------------------------------




----------------------------------------- Iteration    1(   9)  ---------------------------------------


    POTLOK:  cpu time    0.7049: real time    0.7071
    SETDIJ:  cpu time    0.1050: real time    0.1046
     EDDAV:  cpu time  482.4257: real time  483.1075
       DOS:  cpu time    0.0120: real time    0.0106
    CHARGE:  cpu time   20.8958: real time   20.9077
    MIXING:  cpu time    0.0170: real time    0.0162
    --------------------------------------------
      LOOP:  cpu time  504.1614: real time  504.8545

 eigenvalue-minimisations  : 27856
 total energy-change (2. order) : 0.1711921E-01  (-0.1953728E-01)
 number of electron    1024.0006553 magnetization      40.8807834
 augmentation part      606.7337854 magnetization      35.0630870

 Broyden mixing:
  rms(total) = 0.11401E+00    rms(broyden)= 0.11401E+00
  rms(prec ) = 0.11594E+00
  weight for this iteration     100.00

 eigenvalues of (default mixing * dielectric matrix)
  average eigenvalue GAMMA=   1.1394
  2.2291  1.1401  0.5762  0.6123

 Free energy of the ion-electron system (eV)
  ---------------------------------------------------
  alpha Z        PSCENC =      9010.57505126
  Ewald energy   TEWEN  =   -148962.18054694
  -Hartree energ DENC   =    -62249.08060286
  -exchange      EXHF   =         0.00000000
  -V(xc)+E(xc)   XCENC  =      5612.07458047
  PAW double counting   =    170973.27480556  -179997.13959236
  entropy T*S    EENTRO =        -0.18637160
  eigenvalues    EBANDS =    -18765.84171239
  atomic energy  EATOM  =    224013.29143063
  Solvation  Ediel_sol  =         0.00000000
  ---------------------------------------------------
  free energy    TOTEN  =      -365.21295823 eV

  energy without entropy =     -365.02658663  energy(sigma->0) =     -365.15083436


--------------------------------------------------------------------------------------------------------




----------------------------------------- Iteration    1(  10)  ---------------------------------------


    POTLOK:  cpu time    0.6989: real time    0.7009
    SETDIJ:  cpu time    0.1050: real time    0.1044
     EDDAV:  cpu time  493.3930: real time  493.7389
       DOS:  cpu time    0.0100: real time    0.0103
    CHARGE:  cpu time   23.2375: real time   23.2375
    MIXING:  cpu time    0.0230: real time    0.0223
    --------------------------------------------
      LOOP:  cpu time  517.4683: real time  517.8152

 eigenvalue-minimisations  : 28616
 total energy-change (2. order) :-0.3487850E-02  (-0.1212060E-02)
 number of electron    1024.0006553 magnetization      41.4890005
 augmentation part      606.7539439 magnetization      35.7708443

 Broyden mixing:
  rms(total) = 0.26459E-01    rms(broyden)= 0.26452E-01
  rms(prec ) = 0.28162E-01
  weight for this iteration     100.00

 eigenvalues of (default mixing * dielectric matrix)
  average eigenvalue GAMMA=   1.2209
  2.1622  1.6756  1.0730  0.5716  0.6224

 Free energy of the ion-electron system (eV)
  ---------------------------------------------------
  alpha Z        PSCENC =      9010.57505126
  Ewald energy   TEWEN  =   -148962.18054694
  -Hartree energ DENC   =    -62237.74127624
  -exchange      EXHF   =         0.00000000
  -V(xc)+E(xc)   XCENC  =      5611.86533657
  PAW double counting   =    171066.85222816  -180097.33308379
  entropy T*S    EENTRO =        -0.18697389
  eigenvalues    EBANDS =    -18770.35861183
  atomic energy  EATOM  =    224013.29143063
  Solvation  Ediel_sol  =         0.00000000
  ---------------------------------------------------
  free energy    TOTEN  =      -365.21644608 eV

  energy without entropy =     -365.02947219  energy(sigma->0) =     -365.15412145


--------------------------------------------------------------------------------------------------------




----------------------------------------- Iteration    1(  11)  ---------------------------------------


    POTLOK:  cpu time    0.7159: real time    0.7150
    SETDIJ:  cpu time    0.1040: real time    0.1042
     EDDAV:  cpu time  474.5919: real time  474.6892
       DOS:  cpu time    0.0110: real time    0.0106
    CHARGE:  cpu time   18.5072: real time   18.5153
    MIXING:  cpu time    0.0180: real time    0.0174
    --------------------------------------------
      LOOP:  cpu time  493.9479: real time  494.0525

 eigenvalue-minimisations  : 26600
 total energy-change (2. order) :-0.2069397E-02  (-0.3622144E-03)
 number of electron    1024.0006552 magnetization      41.5121671
 augmentation part      606.6534124 magnetization      35.7046831

 Broyden mixing:
  rms(total) = 0.14551E-01    rms(broyden)= 0.14531E-01
  rms(prec ) = 0.17658E-01
  weight for this iteration     100.00

 eigenvalues of (default mixing * dielectric matrix)
  average eigenvalue GAMMA=   1.1988
  2.2634  1.8757  1.1762  0.5671  0.6551  0.6551

 Free energy of the ion-electron system (eV)
  ---------------------------------------------------
  alpha Z        PSCENC =      9010.57505126
  Ewald energy   TEWEN  =   -148962.18054694
  -Hartree energ DENC   =    -62242.44593707
  -exchange      EXHF   =         0.00000000
  -V(xc)+E(xc)   XCENC  =      5612.09405271
  PAW double counting   =    171144.25296297  -180174.74589544
  entropy T*S    EENTRO =        -0.18736070
  eigenvalues    EBANDS =    -18765.87227289
  atomic energy  EATOM  =    224013.29143063
  Solvation  Ediel_sol  =         0.00000000
  ---------------------------------------------------
  free energy    TOTEN  =      -365.21851548 eV

  energy without entropy =     -365.03115478  energy(sigma->0) =     -365.15606191


--------------------------------------------------------------------------------------------------------




----------------------------------------- Iteration    1(  12)  ---------------------------------------


    POTLOK:  cpu time    0.7169: real time    0.7170
    SETDIJ:  cpu time    0.1050: real time    0.1044
     EDDAV:  cpu time  491.4573: real time  491.6976
       DOS:  cpu time    0.0110: real time    0.0106
    CHARGE:  cpu time   18.5882: real time   18.5880
    MIXING:  cpu time    0.0200: real time    0.0197
    --------------------------------------------
      LOOP:  cpu time  510.8983: real time  511.1381

 eigenvalue-minimisations  : 27880
 total energy-change (2. order) :-0.1699441E-03  (-0.6249591E-04)
 number of electron    1024.0006553 magnetization      41.5116228
 augmentation part      606.6992774 magnetization      35.6796304

 Broyden mixing:
  rms(total) = 0.41691E-02    rms(broyden)= 0.41669E-02
  rms(prec ) = 0.43883E-02
  weight for this iteration     100.00

 eigenvalues of (default mixing * dielectric matrix)
  average eigenvalue GAMMA=   1.2196
  2.4384  1.7243  1.4850  0.5691  0.6263  0.8807  0.8134

 Free energy of the ion-electron system (eV)
  ---------------------------------------------------
  alpha Z        PSCENC =      9010.57505126
  Ewald energy   TEWEN  =   -148962.18054694
  -Hartree energ DENC   =    -62239.03859003
  -exchange      EXHF   =         0.00000000
  -V(xc)+E(xc)   XCENC  =      5611.95645278
  PAW double counting   =    171162.18378527  -180193.12374248
  entropy T*S    EENTRO =        -0.18770681
  eigenvalues    EBANDS =    -18768.69481910
  atomic energy  EATOM  =    224013.29143063
  Solvation  Ediel_sol  =         0.00000000
  ---------------------------------------------------
  free energy    TOTEN  =      -365.21868542 eV

  energy without entropy =     -365.03097861  energy(sigma->0) =     -365.15611648


--------------------------------------------------------------------------------------------------------




----------------------------------------- Iteration    1(  13)  ---------------------------------------


    POTLOK:  cpu time    0.7089: real time    0.7090
    SETDIJ:  cpu time    0.1060: real time    0.1050
     EDDAV:  cpu time  487.6739: real time  487.6378
       DOS:  cpu time    0.0100: real time    0.0103
    CHARGE:  cpu time   18.5862: real time   18.5749
    MIXING:  cpu time    0.0250: real time    0.0245
    --------------------------------------------
      LOOP:  cpu time  507.1099: real time  507.0623

 eigenvalue-minimisations  : 27640
 total energy-change (2. order) :-0.3042279E-04  (-0.7358675E-05)
 number of electron    1024.0006553 magnetization      41.5149978
 augmentation part      606.7104141 magnetization      35.6718144

 Broyden mixing:
  rms(total) = 0.16779E-02    rms(broyden)= 0.16772E-02
  rms(prec ) = 0.21473E-02
  weight for this iteration     100.00

 eigenvalues of (default mixing * dielectric matrix)
  average eigenvalue GAMMA=   1.2041
  2.4824  1.6804  1.6804  1.1014  0.5698  0.6227  0.7477  0.7477

 Free energy of the ion-electron system (eV)
  ---------------------------------------------------
  alpha Z        PSCENC =      9010.57505126
  Ewald energy   TEWEN  =   -148962.18054694
  -Hartree energ DENC   =    -62238.26637017
  -exchange      EXHF   =         0.00000000
  -V(xc)+E(xc)   XCENC  =      5611.92263638
  PAW double counting   =    171173.31504518  -180204.28787612
  entropy T*S    EENTRO =        -0.18763852
  eigenvalues    EBANDS =    -18769.40044755
  atomic energy  EATOM  =    224013.29143063
  Solvation  Ediel_sol  =         0.00000000
  ---------------------------------------------------
  free energy    TOTEN  =      -365.21871584 eV

  energy without entropy =     -365.03107733  energy(sigma->0) =     -365.15616967


--------------------------------------------------------------------------------------------------------




----------------------------------------- Iteration    1(  14)  ---------------------------------------


    POTLOK:  cpu time    0.7119: real time    0.7103
    SETDIJ:  cpu time    0.1040: real time    0.1041
     EDDAV:  cpu time  407.1261: real time  407.1554
       DOS:  cpu time    0.0100: real time    0.0105
    CHARGE:  cpu time   18.4252: real time   18.4174
    MIXING:  cpu time    0.0250: real time    0.0243
    --------------------------------------------
      LOOP:  cpu time  426.4022: real time  426.4230

 eigenvalue-minimisations  : 21728
 total energy-change (2. order) : 0.1143556E-04  (-0.5655731E-06)
 number of electron    1024.0006553 magnetization      41.5133640
 augmentation part      606.7066893 magnetization      35.6699182

 Broyden mixing:
  rms(total) = 0.70887E-03    rms(broyden)= 0.70867E-03
  rms(prec ) = 0.92235E-03
  weight for this iteration     100.00

 eigenvalues of (default mixing * dielectric matrix)
  average eigenvalue GAMMA=   1.2617
  2.5041  2.0811  1.8124  1.3883  0.8618  0.8618  0.5694  0.6250  0.6515

 Free energy of the ion-electron system (eV)
  ---------------------------------------------------
  alpha Z        PSCENC =      9010.57505126
  Ewald energy   TEWEN  =   -148962.18054694
  -Hartree energ DENC   =    -62238.62660553
  -exchange      EXHF   =         0.00000000
  -V(xc)+E(xc)   XCENC  =      5611.93689319
  PAW double counting   =    171177.87956438  -180208.70869830
  entropy T*S    EENTRO =        -0.18763130
  eigenvalues    EBANDS =    -18769.19816179
  atomic energy  EATOM  =    224013.29143063
  Solvation  Ediel_sol  =         0.00000000
  ---------------------------------------------------
  free energy    TOTEN  =      -365.21870441 eV

  energy without entropy =     -365.03107311  energy(sigma->0) =     -365.15616064


--------------------------------------------------------------------------------------------------------




----------------------------------------- Iteration    1(  15)  ---------------------------------------


    POTLOK:  cpu time    0.7059: real time    0.7059
    SETDIJ:  cpu time    0.1060: real time    0.1050
     EDDAV:  cpu time  315.8330: real time  315.6693
       DOS:  cpu time    0.0100: real time    0.0105
    CHARGE:  cpu time   18.5452: real time   18.5339
    MIXING:  cpu time    0.0250: real time    0.0245
    --------------------------------------------
      LOOP:  cpu time  335.2250: real time  335.0500

 eigenvalue-minimisations  : 15208
 total energy-change (2. order) : 0.1348811E-04  (-0.1488141E-06)
 number of electron    1024.0006553 magnetization      41.5128107
 augmentation part      606.7038839 magnetization      35.6698513

 Broyden mixing:
  rms(total) = 0.19366E-03    rms(broyden)= 0.19362E-03
  rms(prec ) = 0.22133E-03
  weight for this iteration     100.00

 eigenvalues of (default mixing * dielectric matrix)
  average eigenvalue GAMMA=   1.2752
  2.5691  2.4999  1.6565  1.5701  1.0291  0.8304  0.5693  0.7558  0.6264  0.6451

 Free energy of the ion-electron system (eV)
  ---------------------------------------------------
  alpha Z        PSCENC =      9010.57505126
  Ewald energy   TEWEN  =   -148962.18054694
  -Hartree energ DENC   =    -62239.02298106
  -exchange      EXHF   =         0.00000000
  -V(xc)+E(xc)   XCENC  =      5611.95152947
  PAW double counting   =    171181.37807887  -180212.00261311
  entropy T*S    EENTRO =        -0.18761692
  eigenvalues    EBANDS =    -18769.02102311
  atomic energy  EATOM  =    224013.29143063
  Solvation  Ediel_sol  =         0.00000000
  ---------------------------------------------------
  free energy    TOTEN  =      -365.21869092 eV

  energy without entropy =     -365.03107400  energy(sigma->0) =     -365.15615194


--------------------------------------------------------------------------------------------------------




----------------------------------------- Iteration    1(  16)  ---------------------------------------


    POTLOK:  cpu time    0.7059: real time    0.7046
    SETDIJ:  cpu time    0.1030: real time    0.1033
     EDDAV:  cpu time  302.2311: real time  302.1054
       DOS:  cpu time    0.0100: real time    0.0104
    CHARGE:  cpu time   21.6777: real time   21.6656
    MIXING:  cpu time    0.0280: real time    0.0283
    --------------------------------------------
      LOOP:  cpu time  324.7556: real time  324.6185

 eigenvalue-minimisations  : 13656
 total energy-change (2. order) : 0.1026667E-05  (-0.2172706E-07)
 number of electron    1024.0006553 magnetization      41.5127181
 augmentation part      606.7044678 magnetization      35.6700811

 Broyden mixing:
  rms(total) = 0.38256E-04    rms(broyden)= 0.38021E-04
  rms(prec ) = 0.49311E-04
  weight for this iteration     100.00

 eigenvalues of (default mixing * dielectric matrix)
  average eigenvalue GAMMA=   1.2290
  2.6101  2.4342  1.6947  1.5374  1.0721  0.8313  0.8277  0.5694  0.6849  0.6211
  0.6359

 Free energy of the ion-electron system (eV)
  ---------------------------------------------------
  alpha Z        PSCENC =      9010.57505126
  Ewald energy   TEWEN  =   -148962.18054694
  -Hartree energ DENC   =    -62239.02022015
  -exchange      EXHF   =         0.00000000
  -V(xc)+E(xc)   XCENC  =      5611.95154573
  PAW double counting   =    171181.49779656  -180212.09825009
  entropy T*S    EENTRO =        -0.18761382
  eigenvalues    EBANDS =    -18769.04788306
  atomic energy  EATOM  =    224013.29143063
  Solvation  Ediel_sol  =         0.00000000
  ---------------------------------------------------
  free energy    TOTEN  =      -365.21868989 eV

  energy without entropy =     -365.03107607  energy(sigma->0) =     -365.15615195


--------------------------------------------------------------------------------------------------------




----------------------------------------- Iteration    1(  17)  ---------------------------------------


    POTLOK:  cpu time    0.7019: real time    0.7025
    SETDIJ:  cpu time    0.1040: real time    0.1029
     EDDAV:  cpu time  301.3932: real time  301.3675
       DOS:  cpu time    0.0100: real time    0.0103
    --------------------------------------------
      LOOP:  cpu time  302.2101: real time  302.1850

 eigenvalue-minimisations  : 13584
 total energy-change (2. order) :-0.3786408E-06  (-0.1703645E-08)
 number of electron    1024.0006553 magnetization      41.5127181
 augmentation part      606.7044678 magnetization      35.6700811

 Free energy of the ion-electron system (eV)
  ---------------------------------------------------
  alpha Z        PSCENC =      9010.57505126
  Ewald energy   TEWEN  =   -148962.18054694
  -Hartree energ DENC   =    -62239.00640502
  -exchange      EXHF   =         0.00000000
  -V(xc)+E(xc)   XCENC  =      5611.95107771
  PAW double counting   =    171181.40429751  -180212.01090415
  entropy T*S    EENTRO =        -0.18761383
  eigenvalues    EBANDS =    -18769.05507743
  atomic energy  EATOM  =    224013.29143063
  Solvation  Ediel_sol  =         0.00000000
  ---------------------------------------------------
  free energy    TOTEN  =      -365.21869027 eV

  energy without entropy =     -365.03107644  energy(sigma->0) =     -365.15615233


--------------------------------------------------------------------------------------------------------




 average (electrostatic) potential at core
  the test charge radii are     0.8614
  (the norm of the test charge is              1.0000)
       1 -80.3756       2 -80.3756       3 -80.3756       4 -80.3756       5 -80.3756
       6 -80.3756       7 -80.3756       8 -80.3756       9 -80.3756      10 -80.3756
      11 -80.3756      12 -80.3756      13 -80.3756      14 -80.3756      15 -80.3756
      16 -80.3756      17 -80.3756      18 -80.3756      19 -80.3756      20 -80.3756
      21 -80.3756      22 -80.3756      23 -80.3756      24 -80.3756      25 -80.3756
      26 -80.3756      27 -80.3756      28 -80.3756      29 -80.3756      30 -80.3756
      31 -80.3756      32 -80.3756      33 -80.3756      34 -80.3756      35 -80.3756
      36 -80.3756      37 -80.3756      38 -80.3756      39 -80.3756      40 -80.3756
      41 -80.3756      42 -80.3756      43 -80.3756      44 -80.3756      45 -80.3756
      46 -80.3756      47 -80.3756      48 -80.3756      49 -80.3756      50 -80.3756
      51 -80.3756      52 -80.3756      53 -80.3756      54 -80.3756      55 -80.3756
      56 -80.3756      57 -80.3756      58 -80.3756      59 -80.3756      60 -80.3756
      61 -80.3756      62 -80.3756      63 -80.3756      64 -80.3756
 
 
 
 E-fermi :   6.7457     XC(G=0): -13.1828     alpha+bet :-13.5317


 spin component 1

 k-point     1 :       0.0000    0.0000    0.0000
  band No.  band energies     occupation 
      1     -57.1215      1.00000
      2     -57.1215      1.00000
      3     -57.1215      1.00000
      4     -57.1207      1.00000
      5     -57.1206      1.00000
      6     -57.1206      1.00000
      7     -57.1206      1.00000
      8     -57.1082      1.00000
      9     -57.1082      1.00000
     10     -57.1082      1.00000
     11     -57.1082      1.00000
     12     -57.1082      1.00000
     13     -57.1082      1.00000
     14     -57.1081      1.00000
     15     -57.1081      1.00000
     16     -57.1081      1.00000
     17     -57.1081      1.00000
     18     -57.1081      1.00000
     19     -57.1081      1.00000
     20     -57.1081      1.00000
     21     -57.1081      1.00000
     22     -57.1081      1.00000
     23     -57.1081      1.00000
     24     -57.1081      1.00000
     25     -57.1081      1.00000
     26     -57.1081      1.00000
     27     -57.1081      1.00000
     28     -57.1081      1.00000
     29     -57.1081      1.00000
     30     -57.1081      1.00000
     31     -57.1081      1.00000
     32     -57.0886      1.00000
     33     -57.0886      1.00000
     34     -57.0886      1.00000
     35     -57.0886      1.00000
     36     -57.0886      1.00000
     37     -57.0886      1.00000
     38     -57.0886      1.00000
     39     -57.0886      1.00000
     40     -57.0886      1.00000
     41     -57.0886      1.00000
     42     -57.0886      1.00000
     43     -57.0886      1.00000
     44     -57.0874      1.00000
     45     -57.0874      1.00000
     46     -57.0874      1.00000
     47     -57.0874      1.00000
     48     -57.0874      1.00000
     49     -57.0874      1.00000
     50     -57.0873      1.00000
     51     -57.0873      1.00000
     52     -57.0873      1.00000
     53     -57.0873      1.00000
     54     -57.0873      1.00000
     55     -57.0873      1.00000
     56     -57.0633      1.00000
     57     -57.0633      1.00000
     58     -57.0632      1.00000
     59     -57.0632      1.00000
     60     -57.0632      1.00000
     61     -57.0632      1.00000
     62     -57.0632      1.00000
     63     -57.0632      1.00000
     64     -57.0486      1.00000
     65     -57.0486      1.00000
     66     -57.0486      1.00000
     67     -57.0486      1.00000
     68     -57.0486      1.00000
     69     -57.0486      1.00000
     70     -57.0486      1.00000
     71     -57.0486      1.00000
     72     -57.0486      1.00000
     73     -57.0486      1.00000
     74     -57.0486      1.00000
     75     -57.0486      1.00000
     76     -57.0419      1.00000
     77     -57.0419      1.00000
     78     -57.0419      1.00000
     79     -57.0419      1.00000
     80     -57.0419      1.00000
     81     -57.0419      1.00000
     82     -57.0402      1.00000
     83     -57.0402      1.00000
     84     -57.0402      1.00000
     85     -57.0402      1.00000
     86     -57.0402      1.00000
     87     -57.0402      1.00000
     88     -57.0402      1.00000
     89     -57.0402      1.00000
     90     -57.0402      1.00000
     91     -57.0402      1.00000
     92     -57.0402      1.00000
     93     -57.0402      1.00000
     94     -57.0402      1.00000
     95     -57.0402      1.00000
     96     -57.0402      1.00000
     97     -57.0402      1.00000
     98     -57.0402      1.00000
     99     -57.0402      1.00000
    100     -57.0401      1.00000
    101     -57.0401      1.00000
    102     -57.0401      1.00000
    103     -57.0401      1.00000
    104     -57.0401      1.00000
    105     -57.0401      1.00000
    106     -57.0387      1.00000
    107     -57.0387      1.00000
    108     -57.0387      1.00000
    109     -57.0387      1.00000
    110     -57.0387      1.00000
    111     -57.0387      1.00000
    112     -57.0357      1.00000
    113     -57.0357      1.00000
    114     -57.0357      1.00000
    115     -57.0356      1.00000
    116     -57.0356      1.00000
    117     -57.0356      1.00000
    118     -57.0172      1.00000
    119     -57.0172      1.00000
    120     -57.0172      1.00000
    121     -57.0172      1.00000
    122     -57.0172      1.00000
    123     -57.0172      1.00000
    124     -57.0172      1.00000
    125     -57.0172      1.00000
    126     -57.0172      1.00000
    127     -57.0172      1.00000
    128     -57.0172      1.00000
    129     -57.0172      1.00000
    130     -57.0172      1.00000
    131     -57.0172      1.00000
    132     -57.0172      1.00000
    133     -57.0172      1.00000
    134     -57.0172      1.00000
    135     -57.0172      1.00000
    136     -57.0172      1.00000
    137     -57.0172      1.00000
    138     -57.0172      1.00000
    139     -57.0172      1.00000
    140     -57.0172      1.00000
    141     -57.0172      1.00000
    142     -56.9979      1.00000
    143     -56.9979      1.00000
    144     -56.9979      1.00000
    145     -56.9979      1.00000
    146     -56.9979      1.00000
    147     -56.9979      1.00000
    148     -56.9979      1.00000
    149     -56.9979      1.00000
    150     -56.9979      1.00000
    151     -56.9979      1.00000
    152     -56.9979      1.00000
    153     -56.9979      1.00000
    154     -56.9963      1.00000
    155     -56.9963      1.00000
    156     -56.9963      1.00000
    157     -56.9963      1.00000
    158     -56.9963      1.00000
    159     -56.9963      1.00000
    160     -56.9962      1.00000
    161     -56.9962      1.00000
    162     -56.9962      1.00000
    163     -56.9962      1.00000
    164     -56.9962      1.00000
    165     -56.9962      1.00000
    166     -56.9925      1.00000
    167     -56.9925      1.00000
    168     -56.9925      1.00000
    169     -56.9925      1.00000
    170     -56.9925      1.00000
    171     -56.9925      1.00000
    172     -56.9925      1.00000
    173     -56.9925      1.00000
    174     -56.9915      1.00000
    175     -56.9915      1.00000
    176     -56.9915      1.00000
    177     -56.9915      1.00000
    178     -56.9915      1.00000
    179     -56.9915      1.00000
    180     -56.9915      1.00000
    181     -56.9915      1.00000
    182     -56.9915      1.00000
    183     -56.9915      1.00000
    184     -56.9915      1.00000
    185     -56.9915      1.00000
    186     -56.9915      1.00000
    187     -56.9915      1.00000
    188     -56.9915      1.00000
    189     -56.9915      1.00000
    190     -56.9815      1.00000
    191     -56.9815      1.00000
    192     -56.9815      1.00000
    193      -1.6749      1.00000
    194       0.4239      1.00000
    195       0.4239      1.00000
    196       0.4240      1.00000
    197       0.4240      1.00000
    198       0.4240      1.00000
    199       0.4240      1.00000
    200       0.4240      1.00000
    201       0.4240      1.00000
    202       1.0533      1.00000
    203       1.0533      1.00000
    204       1.0533      1.00000
    205       1.0533      1.00000
    206       1.0533      1.00000
    207       1.0533      1.00000
    208       2.3630      1.00000
    209       2.3631      1.00000
    210       2.3631      1.00000
    211       2.3631      1.00000
    212       2.5853      1.00000
    213       2.5853      1.00000
    214       2.5853      1.00000
    215       2.8625      1.00000
    216       2.8625      1.00000
    217       2.8625      1.00000
    218       2.8625      1.00000
    219       2.8625      1.00000
    220       2.8625      1.00000
    221       2.8625      1.00000
    222       2.8625      1.00000
    223       2.8625      1.00000
    224       2.8625      1.00000
    225       2.8625      1.00000
    226       2.8625      1.00000
    227       2.9845      1.00000
    228       2.9845      1.00000
    229       2.9845      1.00000
    230       3.0519      1.00000
    231       3.0519      1.00000
    232       3.0519      1.00000
    233       3.0519      1.00000
    234       3.0519      1.00000
    235       3.0519      1.00000
    236       3.0520      1.00000
    237       3.0520      1.00000
    238       3.0520      1.00000
    239       3.0520      1.00000
    240       3.0520      1.00000
    241       3.0520      1.00000
    242       3.0520      1.00000
    243       3.0520      1.00000
    244       3.0520      1.00000
    245       3.0520      1.00000
    246       3.0520      1.00000
    247       3.0520      1.00000
    248       3.0520      1.00000
    249       3.0520      1.00000
    250       3.0520      1.00000
    251       3.0520      1.00000
    252       3.0520      1.00000
    253       3.0520      1.00000
    254       3.3759      1.00000
    255       3.3759      1.00000
    256       3.3759      1.00000
    257       3.3759      1.00000
    258       3.3759      1.00000
    259       3.3759      1.00000
    260       3.6447      1.00000
    261       3.6447      1.00000
    262       3.6447      1.00000
    263       3.6447      1.00000
    264       3.6447      1.00000
    265       3.6447      1.00000
    266       3.6447      1.00000
    267       3.6447      1.00000
    268       3.6447      1.00000
    269       3.6447      1.00000
    270       3.6447      1.00000
    271       3.6447      1.00000
    272       3.6447      1.00000
    273       3.6447      1.00000
    274       3.6447      1.00000
    275       3.6447      1.00000
    276       3.6447      1.00000
    277       3.6447      1.00000
    278       3.6447      1.00000
    279       3.6447      1.00000
    280       3.6447      1.00000
    281       3.6447      1.00000
    282       3.6447      1.00000
    283       3.6447      1.00000
    284       3.7246      1.00000
    285       3.7246      1.00000
    286       3.7246      1.00000
    287       3.7246      1.00000
    288       3.7246      1.00000
    289       3.7246      1.00000
    290       3.9648      1.00000
    291       3.9648      1.00000
    292       3.9648      1.00000
    293       3.9648      1.00000
    294       3.9648      1.00000
    295       3.9648      1.00000
    296       3.9649      1.00000
    297       3.9649      1.00000
    298       3.9649      1.00000
    299       3.9649      1.00000
    300       3.9649      1.00000
    301       3.9649      1.00000
    302       3.9657      1.00000
    303       3.9657      1.00000
    304       3.9657      1.00000
    305       3.9657      1.00000
    306       3.9657      1.00000
    307       3.9657      1.00000
    308       3.9657      1.00000
    309       3.9657      1.00000
    310       3.9657      1.00000
[...]
      1.815375  3.630750  1.815375    -0.107688   -0.063124   -0.006612  
      3.630750  5.446125  1.815375    -0.107688   -0.063124   -0.006612  
      5.446125  7.261500  1.815375    -0.107688   -0.063124   -0.006612  
      1.815375  1.815375  3.630750    -0.107688   -0.063124   -0.006612  
      3.630750  3.630750  3.630750    -0.107688   -0.063124   -0.006612  
      5.446125  5.446125  3.630750    -0.107688   -0.063124   -0.006612  
      7.261500  7.261500  3.630750    -0.107688   -0.063124   -0.006612  
      3.630750  1.815375  5.446125    -0.107688   -0.063124   -0.006612  
      5.446125  3.630750  5.446125    -0.107688   -0.063124   -0.006612  
      7.261500  5.446125  5.446125    -0.107688   -0.063124   -0.006612  
      9.076875  7.261500  5.446125    -0.107688   -0.063124   -0.006612  
      5.446125  1.815375  7.261500    -0.107688   -0.063124   -0.006612  
      7.261500  3.630750  7.261500    -0.107688   -0.063124   -0.006612  
      9.076875  5.446125  7.261500    -0.107688   -0.063124   -0.006612  
     10.892250  7.261500  7.261500    -0.107688   -0.063124   -0.006612  
      0.000000  3.630750  3.630750    -0.107688   -0.063124   -0.006612  
      1.815375  5.446125  3.630750    -0.107688   -0.063124   -0.006612  
      3.630750  7.261500  3.630750    -0.107688   -0.063124   -0.006612  
      5.446125  9.076875  3.630750    -0.107688   -0.063124   -0.006612  
      1.815375  3.630750  5.446125    -0.107688   -0.063124   -0.006612  
      3.630750  5.446125  5.446125    -0.107688   -0.063124   -0.006612  
      5.446125  7.261500  5.446125    -0.107688   -0.063124   -0.006612  
      7.261500  9.076875  5.446125    -0.107688   -0.063124   -0.006612  
      3.630750  3.630750  7.261500    -0.107688   -0.063124   -0.006612  
      5.446125  5.446125  7.261500    -0.107688   -0.063124   -0.006612  
      7.261500  7.261500  7.261500    -0.107688   -0.063124   -0.006612  
      9.076875  9.076875  7.261500    -0.107688   -0.063124   -0.006612  
      5.446125  3.630750  9.076875    -0.107688   -0.063124   -0.006612  
      7.261500  5.446125  9.076875    -0.107688   -0.063124   -0.006612  
      9.076875  7.261500  9.076875    -0.107688   -0.063124   -0.006612  
     10.892250  9.076875  9.076875    -0.107688   -0.063124   -0.006612  
      0.000000  5.446125  5.446125    -0.107688   -0.063124   -0.006612  
      1.815375  7.261500  5.446125    -0.107688   -0.063124   -0.006612  
      3.630750  9.076875  5.446125    -0.107688   -0.063124   -0.006612  
      5.446125 10.892250  5.446125    -0.107688   -0.063124   -0.006612  
      1.815375  5.446125  7.261500    -0.107688   -0.063124   -0.006612  
      3.630750  7.261500  7.261500    -0.107688   -0.063124   -0.006612  
      5.446125  9.076875  7.261500    -0.107688   -0.063124   -0.006612  
      7.261500 10.892250  7.261500    -0.107688   -0.063124   -0.006612  
      3.630750  5.446125  9.076875    -0.107688   -0.063124   -0.006612  
      5.446125  7.261500  9.076875    -0.107688   -0.063124   -0.006612  
      7.261500  9.076875  9.076875    -0.107688   -0.063124   -0.006612  
      9.076875 10.892250  9.076875    -0.107688   -0.063124   -0.006612  
      5.446125  5.446125 10.892250    -0.107688   -0.063124   -0.006612  
      7.261500  7.261500 10.892250    -0.107688   -0.063124   -0.006612  
      9.076875  9.076875 10.892250    -0.107688   -0.063124   -0.006612  
     10.892250 10.892250 10.892250    -0.107688   -0.063124   -0.006612  
 
 192 f  =    0.000001 THz     0.000005 2PiTHz    0.000029 cm-1     0.000004 meV
             X         Y         Z           dx          dy          dz
      0.000000  0.000000  0.000000    -0.005941   -0.002941    0.124824  
      1.815375  1.815375  0.000000    -0.005941   -0.002941    0.124824  
      3.630750  3.630750  0.000000    -0.005941   -0.002941    0.124824  
      5.446125  5.446125  0.000000    -0.005941   -0.002941    0.124824  
      1.815375  0.000000  1.815375    -0.005941   -0.002941    0.124824  
      3.630750  1.815375  1.815375    -0.005941   -0.002941    0.124824  
      5.446125  3.630750  1.815375    -0.005941   -0.002941    0.124824  
      7.261500  5.446125  1.815375    -0.005941   -0.002941    0.124824  
      3.630750  0.000000  3.630750    -0.005941   -0.002941    0.124824  
      5.446125  1.815375  3.630750    -0.005941   -0.002941    0.124824  
      7.261500  3.630750  3.630750    -0.005941   -0.002941    0.124824  
      9.076875  5.446125  3.630750    -0.005941   -0.002941    0.124824  
      5.446125  0.000000  5.446125    -0.005941   -0.002941    0.124824  
      7.261500  1.815375  5.446125    -0.005941   -0.002941    0.124824  
      9.076875  3.630750  5.446125    -0.005941   -0.002941    0.124824  
     10.892250  5.446125  5.446125    -0.005941   -0.002941    0.124824  
      0.000000  1.815375  1.815375    -0.005941   -0.002941    0.124824  
      1.815375  3.630750  1.815375    -0.005941   -0.002941    0.124824  
      3.630750  5.446125  1.815375    -0.005941   -0.002941    0.124824  
      5.446125  7.261500  1.815375    -0.005941   -0.002941    0.124824  
      1.815375  1.815375  3.630750    -0.005941   -0.002941    0.124824  
      3.630750  3.630750  3.630750    -0.005941   -0.002941    0.124824  
      5.446125  5.446125  3.630750    -0.005941   -0.002941    0.124824  
      7.261500  7.261500  3.630750    -0.005941   -0.002941    0.124824  
      3.630750  1.815375  5.446125    -0.005941   -0.002941    0.124824  
      5.446125  3.630750  5.446125    -0.005941   -0.002941    0.124824  
      7.261500  5.446125  5.446125    -0.005941   -0.002941    0.124824  
      9.076875  7.261500  5.446125    -0.005941   -0.002941    0.124824  
      5.446125  1.815375  7.261500    -0.005941   -0.002941    0.124824  
      7.261500  3.630750  7.261500    -0.005941   -0.002941    0.124824  
      9.076875  5.446125  7.261500    -0.005941   -0.002941    0.124824  
     10.892250  7.261500  7.261500    -0.005941   -0.002941    0.124824  
      0.000000  3.630750  3.630750    -0.005941   -0.002941    0.124824  
      1.815375  5.446125  3.630750    -0.005941   -0.002941    0.124824  
      3.630750  7.261500  3.630750    -0.005941   -0.002941    0.124824  
      5.446125  9.076875  3.630750    -0.005941   -0.002941    0.124824  
      1.815375  3.630750  5.446125    -0.005941   -0.002941    0.124824  
      3.630750  5.446125  5.446125    -0.005941   -0.002941    0.124824  
      5.446125  7.261500  5.446125    -0.005941   -0.002941    0.124824  
      7.261500  9.076875  5.446125    -0.005941   -0.002941    0.124824  
      3.630750  3.630750  7.261500    -0.005941   -0.002941    0.124824  
      5.446125  5.446125  7.261500    -0.005941   -0.002941    0.124824  
      7.261500  7.261500  7.261500    -0.005941   -0.002941    0.124824  
      9.076875  9.076875  7.261500    -0.005941   -0.002941    0.124824  
      5.446125  3.630750  9.076875    -0.005941   -0.002941    0.124824  
      7.261500  5.446125  9.076875    -0.005941   -0.002941    0.124824  
      9.076875  7.261500  9.076875    -0.005941   -0.002941    0.124824  
     10.892250  9.076875  9.076875    -0.005941   -0.002941    0.124824  
      0.000000  5.446125  5.446125    -0.005941   -0.002941    0.124824  
      1.815375  7.261500  5.446125    -0.005941   -0.002941    0.124824  
      3.630750  9.076875  5.446125    -0.005941   -0.002941    0.124824  
      5.446125 10.892250  5.446125    -0.005941   -0.002941    0.124824  
      1.815375  5.446125  7.261500    -0.005941   -0.002941    0.124824  
      3.630750  7.261500  7.261500    -0.005941   -0.002941    0.124824  
      5.446125  9.076875  7.261500    -0.005941   -0.002941    0.124824  
      7.261500 10.892250  7.261500    -0.005941   -0.002941    0.124824  
      3.630750  5.446125  9.076875    -0.005941   -0.002941    0.124824  
      5.446125  7.261500  9.076875    -0.005941   -0.002941    0.124824  
      7.261500  9.076875  9.076875    -0.005941   -0.002941    0.124824  
      9.076875 10.892250  9.076875    -0.005941   -0.002941    0.124824  
      5.446125  5.446125 10.892250    -0.005941   -0.002941    0.124824  
      7.261500  7.261500 10.892250    -0.005941   -0.002941    0.124824  
      9.076875  9.076875 10.892250    -0.005941   -0.002941    0.124824  
     10.892250 10.892250 10.892250    -0.005941   -0.002941    0.124824  
 

 ELASTIC MODULI CONTR FROM IONIC RELAXATION (kBar)
 Direction    XX          YY          ZZ          XY          YZ          ZX
 --------------------------------------------------------------------------------
 XX           0.0000     -0.0000      0.0000     -0.0000      0.0000     -0.0000
 YY          -0.0000      0.0000      0.0000     -0.0000      0.0000      0.0000
 ZZ          -0.0000     -0.0000     -0.0000      0.0000      0.0000     -0.0000
 XY          -0.0000     -0.0000     -0.0000      0.0000      0.0000     -0.0000
 YZ          -0.0000     -0.0000      0.0000     -0.0000     -0.0000      0.0000
 ZX           0.0000      0.0000     -0.0000     -0.0000      0.0000     -0.0000
 --------------------------------------------------------------------------------



--------------------------------------------------------------------------------------------------------


  LATTYP: Found a face centered cubic cell.
 ALAT       =    14.5230000000
  
  Lattice vectors:
  
 A1 = (   0.0000000000,   7.2615000000,   7.2615000000)
 A2 = (   7.2615000000,   0.0000000000,   7.2615000000)
 A3 = (   7.2615000000,   7.2615000000,   0.0000000000)


Analysis of symmetry for initial positions (statically):
=====================================================================
 Subroutine PRICEL returns following result:
 
  LATTYP: Found a face centered cubic cell.
 ALAT       =     3.6307500000
  
  Lattice vectors:
  
 A1 = (   0.0000000000,   1.8153750000,   1.8153750000)
 A2 = (   1.8153750000,   0.0000000000,   1.8153750000)
 A3 = (   1.8153750000,   1.8153750000,   0.0000000000)
 
  64 primitive cells build up your supercell.
 

 Routine SETGRP: Setting up the symmetry group for a 
 face centered cubic supercell.


 Subroutine GETGRP returns: Found 48 space group operations
 (whereof 48 operations were pure point group operations)
 out of a pool of 48 trial point group operations.


The static configuration has the point symmetry O_h .


Analysis of symmetry for dynamics (positions and initial velocities):
=====================================================================
 Subroutine PRICEL returns following result:
 
  LATTYP: Found a face centered cubic cell.
 ALAT       =     3.6307500000
  
  Lattice vectors:
  
 A1 = (   0.0000000000,   1.8153750000,   1.8153750000)
 A2 = (   1.8153750000,   0.0000000000,   1.8153750000)
 A3 = (   1.8153750000,   1.8153750000,   0.0000000000)
 
  64 primitive cells build up your supercell.
 

 Routine SETGRP: Setting up the symmetry group for a 
 face centered cubic supercell.


 Subroutine GETGRP returns: Found 48 space group operations
 (whereof 48 operations were pure point group operations)
 out of a pool of 48 trial point group operations.


The dynamic configuration has the point symmetry O_h .


Analysis of structural, dynamic, and magnetic symmetry:
=====================================================================
 Subroutine PRICEL returns following result:
 
  LATTYP: Found a face centered cubic cell.
 ALAT       =     3.6307500000
  
  Lattice vectors:
  
 A1 = (   0.0000000000,   1.8153750000,   1.8153750000)
 A2 = (   1.8153750000,   0.0000000000,   1.8153750000)
 A3 = (   1.8153750000,   1.8153750000,   0.0000000000)
 
  64 primitive cells build up your supercell.
 

 Routine SETGRP: Setting up the symmetry group for a 
 face centered cubic supercell.


 Subroutine GETGRP returns: Found 48 space group operations
 (whereof 48 operations were pure point group operations)
 out of a pool of 48 trial point group operations.


The magnetic configuration has the point symmetry O_h .


 Subroutine INISYM returns: Found 48 space group operations
 (whereof 48 operations are pure point group operations),
 and found    64 'primitive' translations

 
 KPOINTS: Zr 15x15x15                             

Automatic generation of k-mesh.
Space group operators:
 irot       det(A)        alpha          n_x          n_y          n_z        tau_x        tau_y        tau_z
    1     1.000000     0.000000     1.000000     0.000000     0.000000     0.000000     0.000000     0.000000
    2    -1.000000     0.000000     1.000000     0.000000     0.000000     0.000000     0.000000     0.000000
    3     1.000000   120.000000    -0.577350    -0.577350    -0.577350     0.000000     0.000000     0.000000
    4    -1.000000   120.000000    -0.577350    -0.577350    -0.577350     0.000000     0.000000     0.000000
    5     1.000000   120.000000     0.577350     0.577350     0.577350     0.000000     0.000000     0.000000
    6    -1.000000   120.000000     0.577350     0.577350     0.577350     0.000000     0.000000     0.000000
    7     1.000000    90.000000     0.000000     0.000000    -1.000000     0.000000     0.000000     0.000000
    8    -1.000000    90.000000     0.000000     0.000000    -1.000000     0.000000     0.000000     0.000000
    9     1.000000   180.000000     0.000000     0.707107     0.707107     0.000000     0.000000     0.000000
   10    -1.000000   180.000000     0.000000     0.707107     0.707107     0.000000     0.000000     0.000000
   11     1.000000    90.000000     0.000000     1.000000     0.000000     0.000000     0.000000     0.000000
   12    -1.000000    90.000000     0.000000     1.000000     0.000000     0.000000     0.000000     0.000000
   13     1.000000   180.000000     0.000000     0.000000     1.000000     0.000000     0.000000     0.000000
   14    -1.000000   180.000000     0.000000     0.000000     1.000000     0.000000     0.000000     0.000000
   15     1.000000   120.000000    -0.577350     0.577350     0.577350     0.000000     0.000000     0.000000
   16    -1.000000   120.000000    -0.577350     0.577350     0.577350     0.000000     0.000000     0.000000
   17     1.000000   120.000000    -0.577350     0.577350    -0.577350     0.000000     0.000000     0.000000
   18    -1.000000   120.000000    -0.577350     0.577350    -0.577350     0.000000     0.000000     0.000000
   19     1.000000    90.000000     0.000000     0.000000     1.000000     0.000000     0.000000     0.000000
   20    -1.000000    90.000000     0.000000     0.000000     1.000000     0.000000     0.000000     0.000000
   21     1.000000    90.000000    -1.000000     0.000000     0.000000     0.000000     0.000000     0.000000
   22    -1.000000    90.000000    -1.000000     0.000000     0.000000     0.000000     0.000000     0.000000
   23     1.000000   180.000000     0.707107     0.000000     0.707107     0.000000     0.000000     0.000000
   24    -1.000000   180.000000     0.707107     0.000000     0.707107     0.000000     0.000000     0.000000
   25     1.000000   120.000000     0.577350    -0.577350     0.577350     0.000000     0.000000     0.000000
   26    -1.000000   120.000000     0.577350    -0.577350     0.577350     0.000000     0.000000     0.000000
   27     1.000000   120.000000    -0.577350    -0.577350     0.577350     0.000000     0.000000     0.000000
   28    -1.000000   120.000000    -0.577350    -0.577350     0.577350     0.000000     0.000000     0.000000
   29     1.000000   180.000000     1.000000     0.000000     0.000000     0.000000     0.000000     0.000000
   30    -1.000000   180.000000     1.000000     0.000000     0.000000     0.000000     0.000000     0.000000
   31     1.000000    90.000000     0.000000    -1.000000     0.000000     0.000000     0.000000     0.000000
   32    -1.000000    90.000000     0.000000    -1.000000     0.000000     0.000000     0.000000     0.000000
   33     1.000000   180.000000     0.707107     0.707107     0.000000     0.000000     0.000000     0.000000
   34    -1.000000   180.000000     0.707107     0.707107     0.000000     0.000000     0.000000     0.000000
   35     1.000000    90.000000     1.000000     0.000000     0.000000     0.000000     0.000000     0.000000
   36    -1.000000    90.000000     1.000000     0.000000     0.000000     0.000000     0.000000     0.000000
   37     1.000000   120.000000     0.577350    -0.577350    -0.577350     0.000000     0.000000     0.000000
   38    -1.000000   120.000000     0.577350    -0.577350    -0.577350     0.000000     0.000000     0.000000
   39     1.000000   180.000000     0.000000     1.000000     0.000000     0.000000     0.000000     0.000000
   40    -1.000000   180.000000     0.000000     1.000000     0.000000     0.000000     0.000000     0.000000
   41     1.000000   120.000000     0.577350     0.577350    -0.577350     0.000000     0.000000     0.000000
   42    -1.000000   120.000000     0.577350     0.577350    -0.577350     0.000000     0.000000     0.000000
   43     1.000000   180.000000     0.000000    -0.707107     0.707107     0.000000     0.000000     0.000000
   44    -1.000000   180.000000     0.000000    -0.707107     0.707107     0.000000     0.000000     0.000000
   45     1.000000   180.000000     0.707107    -0.707107     0.000000     0.000000     0.000000     0.000000
   46    -1.000000   180.000000     0.707107    -0.707107     0.000000     0.000000     0.000000     0.000000
   47     1.000000   180.000000     0.707107     0.000000    -0.707107     0.000000     0.000000     0.000000
   48    -1.000000   180.000000     0.707107     0.000000    -0.707107     0.000000     0.000000     0.000000
 
 Subroutine IBZKPT returns following result:
 ===========================================
 
 Found     10 irreducible k-points:
 
 Following reciprocal coordinates:
            Coordinates               Weight
  0.000000  0.000000  0.000000      1.000000
  0.200000  0.000000  0.000000      8.000000
  0.400000  0.000000  0.000000      8.000000
  0.200000  0.200000  0.000000      6.000000
  0.400000  0.200000  0.000000     24.000000
 -0.400000  0.200000  0.000000     24.000000
 -0.200000  0.200000  0.000000     12.000000
  0.400000  0.400000  0.000000      6.000000
 -0.400000  0.400000  0.000000     12.000000
 -0.400000  0.400000  0.200000     24.000000
 
 Following cartesian coordinates:
            Coordinates               Weight
  0.000000  0.000000  0.000000      1.000000
 -0.013771  0.013771  0.013771      8.000000
 -0.027543  0.027543  0.027543      8.000000
  0.000000  0.000000  0.027543      6.000000
 -0.013771  0.013771  0.041314     24.000000
  0.041314 -0.041314 -0.013771     24.000000
  0.027543 -0.027543  0.000000     12.000000
  0.000000  0.000000  0.055085      6.000000
  0.055085 -0.055085  0.000000     12.000000
  0.068856 -0.041314 -0.013771     24.000000
 
 writing wavefunctions
     LOOP+:  cpu time12138.5607: real time16843.1787
    4ORBIT:  cpu time    0.0000: real time    0.0000

 total amount of memory used by VASP on root node   853893. kBytes
========================================================================

   base      :      30000. kBytes
   nonlr-proj:      46103. kBytes
   fftplans  :      18931. kBytes
   grid      :      59310. kBytes
   one-center:       1990. kBytes
   wavefun   :     697559. kBytes
 
  
  
 General timing and accounting informations for this job:
 ========================================================
  
                  Total CPU time used (sec):    33365.223
                            User time (sec):    33182.177
                          System time (sec):      183.046
                         Elapsed time (sec):    49334.337
  
                   Maximum memory used (kb):     2661376.
                   Average memory used (kb):           0.
  
                          Minor page faults:      1648659
                          Major page faults:            3
                 Voluntary context switches:         1786
