<?xml version="1.0" encoding="ISO-8859-1"?>
<modeling>
 <generator>
  <i name="program" type="string">vasp </i>
  <i name="version" type="string">5.4.1  </i>
  <i name="subversion" type="string">05Feb16 (build Oct 12 2016 17:31:35) complex                          parallel </i>
  <i name="platform" type="string">IFC91_ompi </i>
  <i name="date" type="string">2020 09 07 </i>
  <i name="time" type="string">22:42:42 </i>
 </generator>
 <incar>
  <i type="string" name="SYSTEM"> phonon of Zr bcc - omiga</i>
  <i type="string" name="PREC">a</i>
  <i type="int" name="ISPIN">     2</i>
  <i type="int" name="IBRION">     6</i>
  <i name="EDIFF">      0.00000100</i>
  <i type="int" name="NSW">     1</i>
  <v name="MAGMOM">      1.00000000      1.00000000      1.00000000      1.00000000      1.00000000      1.00000000      1.00000000      1.00000000      1.00000000      1.00000000      1.00000000      1.00000000      1.00000000      1.00000000      1.00000000      1.00000000      1.00000000      1.00000000      1.00000000      1.00000000
      1.00000000      1.00000000      1.00000000      1.00000000      1.00000000      1.00000000      1.00000000      1.00000000      1.00000000      1.00000000      1.00000000      1.00000000      1.00000000      1.00000000      1.00000000      1.00000000      1.00000000      1.00000000      1.00000000      1.00000000
      1.00000000      1.00000000      1.00000000      1.00000000      1.00000000      1.00000000      1.00000000      1.00000000      1.00000000      1.00000000      1.00000000      1.00000000      1.00000000      1.00000000      1.00000000      1.00000000      1.00000000      1.00000000      1.00000000      1.00000000
      1.00000000      1.00000000      1.00000000      1.00000000</v>
  <i type="string" name="LREAL">Auto</i>
  <i type="int" name="ISMEAR">     1</i>
  <i type="int" name="NWRITE">     0</i>
  <v type="int" name="KPOINT_BSE">    -1     0     0     0</v>
 </incar>
 <kpoints>
  <generation param="Gamma">
   <v type="int" name="divisions">       5        5        5 </v>
   <v name="usershift">      0.00000000       0.00000000       0.00000000 </v>
   <v name="genvec1">      0.20000000       0.00000000       0.00000000 </v>
   <v name="genvec2">      0.00000000       0.20000000       0.00000000 </v>
   <v name="genvec3">      0.00000000       0.00000000       0.20000000 </v>
   <v name="shift">      0.00000000       0.00000000       0.00000000 </v>
  </generation>
  <varray name="kpointlist" >
   <v>       0.00000000       0.00000000       0.00000000 </v>
   <v>       0.20000000       0.00000000       0.00000000 </v>
   <v>       0.40000000       0.00000000       0.00000000 </v>
   <v>       0.20000000       0.20000000       0.00000000 </v>
   <v>       0.40000000       0.20000000       0.00000000 </v>
   <v>      -0.40000000       0.20000000       0.00000000 </v>
   <v>      -0.20000000       0.20000000       0.00000000 </v>
   <v>       0.40000000       0.40000000       0.00000000 </v>
   <v>      -0.40000000       0.40000000       0.00000000 </v>
   <v>      -0.40000000       0.40000000       0.20000000 </v>
  </varray>
  <varray name="weights" >
   <v>       0.00800000 </v>
   <v>       0.06400000 </v>
   <v>       0.06400000 </v>
   <v>       0.04800000 </v>
   <v>       0.19200000 </v>
   <v>       0.19200000 </v>
   <v>       0.09600000 </v>
   <v>       0.04800000 </v>
   <v>       0.09600000 </v>
   <v>       0.19200000 </v>
  </varray>
 </kpoints>
 <parameters>
  <separator name="general" >
   <i type="string" name="SYSTEM">phonon of Zr bcc - omiga</i>
   <i type="logical" name="LCOMPAT"> F  </i>
  </separator>
  <separator name="electronic" >
   <i type="string" name="PREC">a</i>
   <i name="ENMAX">    367.94500000</i>
   <i name="ENAUG">    703.44300000</i>
   <i name="EDIFF">      0.00000100</i>
   <i type="int" name="IALGO">    38</i>
   <i type="int" name="IWAVPR">    11</i>
   <i type="int" name="NBANDS">   648</i>
   <i name="NELECT">   1024.00000000</i>
   <i type="int" name="TURBO">     0</i>
   <i type="int" name="IRESTART">     0</i>
   <i type="int" name="NREBOOT">     0</i>
   <i type="int" name="NMIN">     0</i>
   <i name="EREF">      0.00000000</i>
   <separator name="electronic smearing" >
    <i type="int" name="ISMEAR">     1</i>
    <i name="SIGMA">      0.20000000</i>
    <i name="KSPACING">      0.50000000</i>
    <i type="logical" name="KGAMMA"> T  </i>
   </separator>
   <separator name="electronic projectors" >
    <i type="logical" name="LREAL"> T  </i>
    <v name="ROPT">     -0.00025000</v>
    <i type="int" name="LMAXPAW">  -100</i>
    <i type="int" name="LMAXMIX">     2</i>
    <i type="logical" name="NLSPLINE"> F  </i>
   </separator>
   <separator name="electronic startup" >
    <i type="int" name="ISTART">     0</i>
    <i type="int" name="ICHARG">     2</i>
    <i type="int" name="INIWAV">     1</i>
   </separator>
   <separator name="electronic spin" >
    <i type="int" name="ISPIN">     2</i>
    <i type="logical" name="LNONCOLLINEAR"> F  </i>
    <v name="MAGMOM">      1.00000000      1.00000000      1.00000000      1.00000000      1.00000000      1.00000000      1.00000000      1.00000000      1.00000000      1.00000000      1.00000000      1.00000000      1.00000000      1.00000000      1.00000000      1.00000000      1.00000000      1.00000000      1.00000000      1.00000000
      1.00000000      1.00000000      1.00000000      1.00000000      1.00000000      1.00000000      1.00000000      1.00000000      1.00000000      1.00000000      1.00000000      1.00000000      1.00000000      1.00000000      1.00000000      1.00000000      1.00000000      1.00000000      1.00000000      1.00000000
      1.00000000      1.00000000      1.00000000      1.00000000      1.00000000      1.00000000      1.00000000      1.00000000      1.00000000      1.00000000      1.00000000      1.00000000      1.00000000      1.00000000      1.00000000      1.00000000      1.00000000      1.00000000      1.00000000      1.00000000
      1.00000000      1.00000000      1.00000000      1.00000000</v>
    <i name="NUPDOWN">     -1.00000000</i>
    <i type="logical" name="LSORBIT"> F  </i>
    <v name="SAXIS">      0.00000000      0.00000000      1.00000000</v>
    <i type="logical" name="LSPIRAL"> F  </i>
    <v name="QSPIRAL">      0.00000000      0.00000000      0.00000000</v>
    <i type="logical" name="LZEROZ"> F  </i>
   </separator>
   <separator name="electronic exchange-correlation" >
    <i type="logical" name="LASPH"> F  </i>
    <i type="logical" name="LMETAGGA"> F  </i>
   </separator>
   <separator name="electronic convergence" >
    <i type="int" name="NELM">    60</i>
    <i type="int" name="NELMDL">     0</i>
    <i type="int" name="NELMIN">     2</i>
    <i name="ENINI">    367.94500000</i>
    <separator name="electronic convergence detail" >
     <i type="logical" name="LDIAG"> T  </i>
     <i type="logical" name="LSUBROT"> F  </i>
     <i name="WEIMIN">      0.00100000</i>
     <i name="EBREAK">      0.00000000</i>
     <i name="DEPER">      0.30000000</i>
     <i type="int" name="NRMM">     4</i>
     <i name="TIME">      0.40000000</i>
    </separator>
   </separator>
   <separator name="electronic mixer" >
    <i name="AMIX">      0.40000000</i>
    <i name="BMIX">      1.00000000</i>
    <i name="AMIN">      0.10000000</i>
    <i name="AMIX_MAG">      1.60000000</i>
    <i name="BMIX_MAG">      1.00000000</i>
    <separator name="electronic mixer details" >
     <i type="int" name="IMIX">     4</i>
     <i type="logical" name="MIXFIRST"> F  </i>
     <i type="int" name="MAXMIX">   -45</i>
     <i name="WC">    100.00000000</i>
     <i type="int" name="INIMIX">     1</i>
     <i type="int" name="MIXPRE">     1</i>
     <i type="int" name="MREMOVE">     5</i>
    </separator>
   </separator>
   <separator name="electronic dipolcorrection" >
    <i type="logical" name="LDIPOL"> F  </i>
    <i type="logical" name="LMONO"> F  </i>
    <i type="int" name="IDIPOL">     0</i>
    <i name="EPSILON">      1.00000000</i>
    <v name="DIPOL">   -100.00000000   -100.00000000   -100.00000000</v>
    <i name="EFIELD">      0.00000000</i>
   </separator>
  </separator>
  <separator name="grids" >
   <i type="int" name="NGX">    64</i>
   <i type="int" name="NGY">    64</i>
   <i type="int" name="NGZ">    64</i>
   <i type="int" name="NGXF">   128</i>
   <i type="int" name="NGYF">   128</i>
   <i type="int" name="NGZF">   128</i>
   <i type="logical" name="ADDGRID"> F  </i>
  </separator>
  <separator name="ionic" >
   <i type="int" name="NSW">   805</i>
   <i type="int" name="IBRION">     6</i>
   <i type="int" name="ISIF">     2</i>
   <i name="PSTRESS">      0.00000000</i>
   <i name="EDIFFG">      0.00001000</i>
   <i type="int" name="NFREE">     2</i>
   <i name="POTIM">      0.50000000</i>
   <i name="SMASS">     -3.00000000</i>
   <i name="SCALEE">      1.00000000</i>
  </separator>
  <separator name="ionic md" >
   <i name="TEBEG">      0.00010000</i>
   <i name="TEEND">      0.00010000</i>
   <i type="int" name="NBLOCK">     1</i>
   <i type="int" name="KBLOCK">     1</i>
   <i type="int" name="NPACO">   256</i>
   <i name="APACO">     16.00000000</i>
  </separator>
  <separator name="symmetry" >
   <i type="int" name="ISYM">     2</i>
   <i name="SYMPREC">      0.00001000</i>
  </separator>
  <separator name="dos" >
   <i type="logical" name="LORBIT"> F  </i>
   <v name="RWIGS">     -1.00000000</v>
   <i type="int" name="NEDOS">   301</i>
   <i name="EMIN">     10.00000000</i>
   <i name="EMAX">    -10.00000000</i>
   <i name="EFERMI">      0.00000000</i>
  </separator>
  <separator name="writing" >
   <i type="int" name="NWRITE">     0</i>
   <i type="logical" name="LWAVE"> T  </i>
   <i type="logical" name="LCHARG"> T  </i>
   <i type="logical" name="LPARD"> F  </i>
   <i type="logical" name="LVTOT"> F  </i>
   <i type="logical" name="LVHAR"> F  </i>
   <i type="logical" name="LELF"> F  </i>
   <i type="logical" name="LOPTICS"> F  </i>
   <v name="STM">      0.00000000      0.00000000      0.00000000      0.00000000      0.00000000      0.00000000      0.00000000</v>
  </separator>
  <separator name="performance" >
   <i type="int" name="NPAR">     4</i>
   <i type="int" name="NSIM">     4</i>
   <i type="int" name="NBLK">    -1</i>
   <i type="logical" name="LPLANE"> T  </i>
   <i type="logical" name="LSCALAPACK"> T  </i>
   <i type="logical" name="LSCAAWARE"> F  </i>
   <i type="logical" name="LSCALU"> F  </i>
   <i type="logical" name="LASYNC"> F  </i>
   <i type="logical" name="LORBITALREAL"> F  </i>
  </separator>
  <separator name="miscellaneous" >
   <i type="int" name="IDIOT">     3</i>
   <i type="logical" name="LMUSIC"> F  </i>
   <v name="POMASS">     58.69000000</v>
   <v name="DARWINR">      0.00000000</v>
   <v name="DARWINV">      1.00000000</v>
   <i type="logical" name="LCORR"> T  </i>
  </separator>
  <i type="logical" name="GGA_COMPAT"> T  </i>
  <i type="logical" name="LBERRY"> F  </i>
  <i type="int" name="ICORELEVEL">     0</i>
  <i type="logical" name="LDAU"> F  </i>
  <i type="int" name="I_CONSTRAINED_M">     0</i>
  <separator name="electronic exchange-correlation" >
   <i type="string" name="GGA">--</i>
   <i type="int" name="VOSKOWN">     0</i>
   <i type="logical" name="LHFCALC"> F  </i>
   <i type="string" name="PRECFOCK"></i>
   <i type="logical" name="LSYMGRAD"> F  </i>
   <i type="logical" name="LHFONE"> F  </i>
   <i type="logical" name="LRHFCALC"> F  </i>
   <i type="logical" name="LTHOMAS"> F  </i>
   <i type="logical" name="LMODELHF"> F  </i>
   <i name="ENCUT4O">     -1.00000000</i>
   <i type="int" name="EXXOEP">     0</i>
   <i type="int" name="FOURORBIT">     0</i>
   <i name="AEXX">      0.00000000</i>
   <i name="HFALPHA">      0.00000000</i>
   <i name="MCALPHA">      0.00000000</i>
   <i name="ALDAX">      1.00000000</i>
   <i name="AGGAX">      1.00000000</i>
   <i name="ALDAC">      1.00000000</i>
   <i name="AGGAC">      1.00000000</i>
   <i type="int" name="NKREDX">     1</i>
   <i type="int" name="NKREDY">     1</i>
   <i type="int" name="NKREDZ">     1</i>
   <i type="logical" name="SHIFTRED"> F  </i>
   <i type="logical" name="ODDONLY"> F  </i>
   <i type="logical" name="EVENONLY"> F  </i>
   <i type="int" name="LMAXFOCK">     0</i>
   <i type="int" name="NMAXFOCKAE">     0</i>
   <i type="logical" name="LFOCKAEDFT"> F  </i>
   <i name="HFSCREEN">      0.00000000</i>
   <i name="HFSCREENC">      0.00000000</i>
   <i type="int" name="NBANDSGWLOW">     0</i>
  </separator>
  <separator name="vdW DFT" >
   <i type="logical" name="LUSE_VDW"> F  </i>
   <i name="Zab_VDW">     -0.84910000</i>
   <i name="PARAM1">      0.12340000</i>
   <i name="PARAM2">      1.00000000</i>
   <i name="PARAM3">      0.00000000</i>
  </separator>
  <separator name="model GW" >
   <i type="int" name="MODEL_GW">     0</i>
   <i name="MODEL_EPS0">      7.17927017</i>
   <i name="MODEL_ALPHA">      1.00000000</i>
  </separator>
  <separator name="linear response parameters" >
   <i type="logical" name="LEPSILON"> F  </i>
   <i type="logical" name="LRPA"> F  </i>
   <i type="logical" name="LNABLA"> F  </i>
   <i type="logical" name="LVEL"> F  </i>
   <i type="int" name="KINTER">     0</i>
   <i name="CSHIFT">      0.10000000</i>
   <i name="OMEGAMAX">     -1.00000000</i>
   <i name="DEG_THRESHOLD">      0.00200000</i>
  </separator>
  <separator name="orbital magnetization" >
   <i type="logical" name="NUCIND"> F  </i>
   <v name="MAGPOS">      0.00000000      0.00000000      0.00000000</v>
   <i type="logical" name="LNICSALL"> T  </i>
   <i type="logical" name="ORBITALMAG"> F  </i>
   <i type="logical" name="LMAGBLOCH"> F  </i>
   <i type="logical" name="LCHIMAG"> F  </i>
   <i type="logical" name="LGAUGE"> T  </i>
   <i type="int" name="MAGATOM">     0</i>
   <v name="MAGDIPOL">      0.00000000      0.00000000      0.00000000</v>
   <v name="AVECCONST">      0.00000000      0.00000000      0.00000000</v>
  </separator>
  <separator name="response functions" >
   <i type="logical" name="LADDER"> F  </i>
   <i type="logical" name="LFXC"> F  </i>
   <i type="logical" name="LHARTREE"> T  </i>
   <i type="int" name="IBSE">     0</i>
   <v type="int" name="KPOINT">    -1     0     0     0</v>
   <i type="logical" name="LTCTE"> F  </i>
   <i type="logical" name="LTETE"> F  </i>
   <i type="logical" name="LTRIPLET"> F  </i>
   <i type="logical" name="LFXCEPS"> F  </i>
   <i type="logical" name="LFXHEG"> F  </i>
   <i type="int" name="NATURALO">     0</i>
   <i type="logical" name="L2ORDER"> F  </i>
   <i type="logical" name="LUSEW"> F  </i>
   <i name="ENCUTGW">     -2.00000000</i>
   <i name="ENCUTGWSOFT">     -2.00000000</i>
   <i name="ENCUTLF">     -1.00000000</i>
   <i type="int" name="LMAXMP2">    -1</i>
   <i name="SCISSOR">      0.00000000</i>
   <i type="int" name="NOMEGA">     0</i>
   <i type="int" name="NOMEGAR">     0</i>
   <i type="int" name="NBANDSGW">    -1</i>
   <i type="int" name="NBANDSO">    -1</i>
   <i type="int" name="NBANDSV">    -1</i>
   <i type="int" name="NELM">     1</i>
   <i type="int" name="NELMHF">     1</i>
   <i type="int" name="DIM">     3</i>
   <i type="int" name="ANTIRES">     0</i>
   <i name="OMEGAMAX">    -30.00000000</i>
   <i name="OMEGAMIN">    -30.00000000</i>
   <i name="OMEGATL">   -200.00000000</i>
   <i type="int" name="OMEGAGRID">     0</i>
   <i name="CSHIFT">     -0.10000000</i>
   <i type="logical" name="SELFENERGY"> F  </i>
   <i type="logical" name="LSPECTRAL"> F  </i>
   <i type="logical" name="LSPECTRALGW"> F  </i>
   <i type="logical" name="LSINGLES"> F  </i>
   <i type="logical" name="LFERMIGW"> F  </i>
   <i type="logical" name="ODDONLYGW"> F  </i>
   <i type="logical" name="EVENONLYGW"> F  </i>
   <i type="int" name="NKREDLFX">     1</i>
   <i type="int" name="NKREDLFY">     1</i>
   <i type="int" name="NKREDLFZ">     1</i>
   <i type="int" name="MAXMEM">  1800</i>
   <i type="int" name="TELESCOPE">     0</i>
   <i type="int" name="TAUPAR">     1</i>
   <i type="int" name="OMEGAPAR">    -1</i>
   <i name="LAMBDA">      1.00000000</i>
  </separator>
  <separator name="External order field" >
   <i name="OFIELD_KAPPA">      0.00000000</i>
   <v name="OFIELD_K">      0.00000000      0.00000000      0.00000000</v>
   <i name="OFIELD_Q6_NEAR">      0.00000000</i>
   <i name="OFIELD_Q6_FAR">      0.00000000</i>
   <i name="OFIELD_A">      0.00000000</i>
  </separator>
 </parameters>
 <atominfo>
  <atoms>      64 </atoms>
  <types>       1 </types>
  <array name="atoms" >
   <dimension dim="1">ion</dimension>
   <field type="string">element</field>
   <field type="int">atomtype</field>
   <set>
    <rc><c>Ni</c><c>   1</c></rc>
    <rc><c>Ni</c><c>   1</c></rc>
    <rc><c>Ni</c><c>   1</c></rc>
    <rc><c>Ni</c><c>   1</c></rc>
    <rc><c>Ni</c><c>   1</c></rc>
    <rc><c>Ni</c><c>   1</c></rc>
    <rc><c>Ni</c><c>   1</c></rc>
    <rc><c>Ni</c><c>   1</c></rc>
    <rc><c>Ni</c><c>   1</c></rc>
    <rc><c>Ni</c><c>   1</c></rc>
    <rc><c>Ni</c><c>   1</c></rc>
    <rc><c>Ni</c><c>   1</c></rc>
    <rc><c>Ni</c><c>   1</c></rc>
    <rc><c>Ni</c><c>   1</c></rc>
    <rc><c>Ni</c><c>   1</c></rc>
    <rc><c>Ni</c><c>   1</c></rc>
    <rc><c>Ni</c><c>   1</c></rc>
    <rc><c>Ni</c><c>   1</c></rc>
    <rc><c>Ni</c><c>   1</c></rc>
    <rc><c>Ni</c><c>   1</c></rc>
    <rc><c>Ni</c><c>   1</c></rc>
    <rc><c>Ni</c><c>   1</c></rc>
    <rc><c>Ni</c><c>   1</c></rc>
    <rc><c>Ni</c><c>   1</c></rc>
    <rc><c>Ni</c><c>   1</c></rc>
    <rc><c>Ni</c><c>   1</c></rc>
    <rc><c>Ni</c><c>   1</c></rc>
    <rc><c>Ni</c><c>   1</c></rc>
    <rc><c>Ni</c><c>   1</c></rc>
    <rc><c>Ni</c><c>   1</c></rc>
    <rc><c>Ni</c><c>   1</c></rc>
    <rc><c>Ni</c><c>   1</c></rc>
    <rc><c>Ni</c><c>   1</c></rc>
    <rc><c>Ni</c><c>   1</c></rc>
    <rc><c>Ni</c><c>   1</c></rc>
    <rc><c>Ni</c><c>   1</c></rc>
    <rc><c>Ni</c><c>   1</c></rc>
    <rc><c>Ni</c><c>   1</c></rc>
    <rc><c>Ni</c><c>   1</c></rc>
    <rc><c>Ni</c><c>   1</c></rc>
    <rc><c>Ni</c><c>   1</c></rc>
    <rc><c>Ni</c><c>   1</c></rc>
    <rc><c>Ni</c><c>   1</c></rc>
    <rc><c>Ni</c><c>   1</c></rc>
    <rc><c>Ni</c><c>   1</c></rc>
    <rc><c>Ni</c><c>   1</c></rc>
    <rc><c>Ni</c><c>   1</c></rc>
    <rc><c>Ni</c><c>   1</c></rc>
    <rc><c>Ni</c><c>   1</c></rc>
    <rc><c>Ni</c><c>   1</c></rc>
    <rc><c>Ni</c><c>   1</c></rc>
    <rc><c>Ni</c><c>   1</c></rc>
    <rc><c>Ni</c><c>   1</c></rc>
    <rc><c>Ni</c><c>   1</c></rc>
    <rc><c>Ni</c><c>   1</c></rc>
    <rc><c>Ni</c><c>   1</c></rc>
    <rc><c>Ni</c><c>   1</c></rc>
    <rc><c>Ni</c><c>   1</c></rc>
    <rc><c>Ni</c><c>   1</c></rc>
    <rc><c>Ni</c><c>   1</c></rc>
    <rc><c>Ni</c><c>   1</c></rc>
    <rc><c>Ni</c><c>   1</c></rc>
    <rc><c>Ni</c><c>   1</c></rc>
    <rc><c>Ni</c><c>   1</c></rc>
   </set>
  </array>
  <array name="atomtypes" >
   <dimension dim="1">type</dimension>
   <field type="int">atomspertype</field>
   <field type="string">element</field>
   <field>mass</field>
   <field>valence</field>
   <field type="string">pseudopotential</field>
   <set>
    <rc><c>  64</c><c>Ni</c><c>     58.69000000</c><c>     16.00000000</c><c> PAW_PBE Ni_pv 06Sep2000                </c></rc>
   </set>
  </array>
 </atominfo>
 <structure name="initialpos" >
  <crystal>
   <varray name="basis" >
    <v>       0.00000000       7.26150000       7.26150000 </v>
    <v>       7.26150000       0.00000000       7.26150000 </v>
    <v>       7.26150000       7.26150000       0.00000000 </v>
   </varray>
   <i name="volume">    765.78881842 </i>
   <varray name="rec_basis" >
    <v>      -0.06885630       0.06885630       0.06885630 </v>
    <v>       0.06885630      -0.06885630       0.06885630 </v>
    <v>       0.06885630       0.06885630      -0.06885630 </v>
   </varray>
  </crystal>
  <varray name="positions" >
   <v>       0.00000000       0.00000000       0.00000000 </v>
   <v>       0.00000000       0.00000000       0.25000000 </v>
   <v>       0.00000000       0.00000000       0.50000000 </v>
   <v>       0.00000000       0.00000000       0.75000000 </v>
   <v>       0.00000000       0.25000000       0.00000000 </v>
   <v>       0.00000000       0.25000000       0.25000000 </v>
   <v>       0.00000000       0.25000000       0.50000000 </v>
   <v>       0.00000000       0.25000000       0.75000000 </v>
   <v>       0.00000000       0.50000000       0.00000000 </v>
   <v>       0.00000000       0.50000000       0.25000000 </v>
   <v>       0.00000000       0.50000000       0.50000000 </v>
   <v>       0.00000000       0.50000000       0.75000000 </v>
   <v>       0.00000000       0.75000000       0.00000000 </v>
   <v>       0.00000000       0.75000000       0.25000000 </v>
   <v>       0.00000000       0.75000000       0.50000000 </v>
   <v>       0.00000000       0.75000000       0.75000000 </v>
   <v>       0.25000000       0.00000000       0.00000000 </v>
   <v>       0.25000000       0.00000000       0.25000000 </v>
   <v>       0.25000000       0.00000000       0.50000000 </v>
   <v>       0.25000000       0.00000000       0.75000000 </v>
   <v>       0.25000000       0.25000000       0.00000000 </v>
   <v>       0.25000000       0.25000000       0.25000000 </v>
   <v>       0.25000000       0.25000000       0.50000000 </v>
   <v>       0.25000000       0.25000000       0.75000000 </v>
   <v>       0.25000000       0.50000000       0.00000000 </v>
   <v>       0.25000000       0.50000000       0.25000000 </v>
   <v>       0.25000000       0.50000000       0.50000000 </v>
   <v>       0.25000000       0.50000000       0.75000000 </v>
   <v>       0.25000000       0.75000000       0.00000000 </v>
   <v>       0.25000000       0.75000000       0.25000000 </v>
   <v>       0.25000000       0.75000000       0.50000000 </v>
   <v>       0.25000000       0.75000000       0.75000000 </v>
   <v>       0.50000000       0.00000000       0.00000000 </v>
   <v>       0.50000000       0.00000000       0.25000000 </v>
   <v>       0.50000000       0.00000000       0.50000000 </v>
   <v>       0.50000000       0.00000000       0.75000000 </v>
   <v>       0.50000000       0.25000000       0.00000000 </v>
   <v>       0.50000000       0.25000000       0.25000000 </v>
   <v>       0.50000000       0.25000000       0.50000000 </v>
   <v>       0.50000000       0.25000000       0.75000000 </v>
   <v>       0.50000000       0.50000000       0.00000000 </v>
   <v>       0.50000000       0.50000000       0.25000000 </v>
   <v>       0.50000000       0.50000000       0.50000000 </v>
   <v>       0.50000000       0.50000000       0.75000000 </v>
   <v>       0.50000000       0.75000000       0.00000000 </v>
   <v>       0.50000000       0.75000000       0.25000000 </v>
   <v>       0.50000000       0.75000000       0.50000000 </v>
   <v>       0.50000000       0.75000000       0.75000000 </v>
   <v>       0.75000000       0.00000000       0.00000000 </v>
   <v>       0.75000000       0.00000000       0.25000000 </v>
   <v>       0.75000000       0.00000000       0.50000000 </v>
   <v>       0.75000000       0.00000000       0.75000000 </v>
   <v>       0.75000000       0.25000000       0.00000000 </v>
   <v>       0.75000000       0.25000000       0.25000000 </v>
   <v>       0.75000000       0.25000000       0.50000000 </v>
   <v>       0.75000000       0.25000000       0.75000000 </v>
   <v>       0.75000000       0.50000000       0.00000000 </v>
   <v>       0.75000000       0.50000000       0.25000000 </v>
   <v>       0.75000000       0.50000000       0.50000000 </v>
   <v>       0.75000000       0.50000000       0.75000000 </v>
   <v>       0.75000000       0.75000000       0.00000000 </v>
   <v>       0.75000000       0.75000000       0.25000000 </v>
   <v>       0.75000000       0.75000000       0.50000000 </v>
   <v>       0.75000000       0.75000000       0.75000000 </v>
  </varray>
 </structure>
 <calculation>
  <scstep>
   <time name="dav">  429.39  429.09</time>
   <time name="total">  430.16  429.86</time>
   <energy>
    <i name="alphaZ">   9010.57505126 </i>
    <i name="ewald">-148962.18054694 </i>
    <i name="hartreedc"> -64548.20625185 </i>
    <i name="XCdc">   5698.57200584 </i>
    <i name="pawpsdc"> 172361.15642774 </i>
    <i name="pawaedc">-181272.45834873 </i>
    <i name="eentropy">     -0.00708533 </i>
    <i name="bandstr">  -2661.79604944 </i>
    <i name="atom"> 224013.29143063 </i>
    <i name="e_fr_energy">  13638.94663318 </i>
    <i name="e_wo_entrp">  13638.95371850 </i>
    <i name="e_0_energy">  13638.94899495 </i>
   </energy>
  </scstep>
  <scstep>
   <time name="dav">  397.27  396.94</time>
   <time name="total">  397.27  396.95</time>
   <energy>
    <i name="e_fr_energy">    743.22323000 </i>
    <i name="e_wo_entrp">    743.21289269 </i>
    <i name="e_0_energy">    743.21978423 </i>
   </energy>
  </scstep>
  <scstep>
   <time name="dav">  401.04  400.72</time>
   <time name="total">  401.06  400.73</time>
   <energy>
    <i name="e_fr_energy">   -369.89572025 </i>
    <i name="e_wo_entrp">   -369.93734762 </i>
    <i name="e_0_energy">   -369.90959604 </i>
   </energy>
  </scstep>
  <scstep>
   <time name="dav">  402.95  402.62</time>
   <time name="total">  402.96  402.63</time>
   <energy>
    <i name="e_fr_energy">   -427.05382298 </i>
    <i name="e_wo_entrp">   -427.17497944 </i>
    <i name="e_0_energy">   -427.09420847 </i>
   </energy>
  </scstep>
  <scstep>
   <time name="dav">  435.6011700.60</time>
   <time name="total">  457.5511722.55</time>
   <energy>
    <i name="e_fr_energy">   -427.91715417 </i>
    <i name="e_wo_entrp">   -428.03932529 </i>
    <i name="e_0_energy">   -427.95787787 </i>
   </energy>
  </scstep>
  <scstep>
   <time name="dav">  477.62  477.62</time>
   <time name="total">  501.38  501.40</time>
   <energy>
    <i name="e_fr_energy">   -400.50972448 </i>
    <i name="e_wo_entrp">   -400.15442239 </i>
    <i name="e_0_energy">   -400.39129045 </i>
   </energy>
  </scstep>
  <scstep>
   <time name="dav">  478.13  478.19</time>
   <time name="total">  500.74  500.80</time>
   <energy>
    <i name="e_fr_energy">   -365.12463556 </i>
    <i name="e_wo_entrp">   -364.91528487 </i>
    <i name="e_0_energy">   -365.05485200 </i>
   </energy>
  </scstep>
  <scstep>
   <time name="dav">  471.60  471.68</time>
   <time name="total">  495.60  495.70</time>
   <energy>
    <i name="e_fr_energy">   -365.23007744 </i>
    <i name="e_wo_entrp">   -365.04225238 </i>
    <i name="e_0_energy">   -365.16746909 </i>
   </energy>
  </scstep>
  <scstep>
   <time name="dav">  482.43  483.11</time>
   <time name="total">  504.16  504.85</time>
   <energy>
    <i name="e_fr_energy">   -365.21295823 </i>
    <i name="e_wo_entrp">   -365.02658663 </i>
    <i name="e_0_energy">   -365.15083436 </i>
   </energy>
  </scstep>
  <scstep>
   <time name="dav">  493.39  493.74</time>
   <time name="total">  517.47  517.82</time>
   <energy>
    <i name="e_fr_energy">   -365.21644608 </i>
    <i name="e_wo_entrp">   -365.02947219 </i>
    <i name="e_0_energy">   -365.15412145 </i>
   </energy>
  </scstep>
  <scstep>
   <time name="dav">  474.59  474.69</time>
   <time name="total">  493.95  494.05</time>
   <energy>
    <i name="e_fr_energy">   -365.21851548 </i>
    <i name="e_wo_entrp">   -365.03115478 </i>
    <i name="e_0_energy">   -365.15606191 </i>
   </energy>
  </scstep>
  <scstep>
   <time name="dav">  491.46  491.70</time>
   <time name="total">  510.90  511.14</time>
   <energy>
    <i name="e_fr_energy">   -365.21868542 </i>
    <i name="e_wo_entrp">   -365.03097861 </i>
    <i name="e_0_energy">   -365.15611648 </i>
   </energy>
  </scstep>
  <scstep>
   <time name="dav">  487.67  487.64</time>
   <time name="total">  507.11  507.06</time>
   <energy>
    <i name="e_fr_energy">   -365.21871584 </i>
    <i name="e_wo_entrp">   -365.03107733 </i>
    <i name="e_0_energy">   -365.15616967 </i>
   </energy>
  </scstep>
  <scstep>
   <time name="dav">  407.13  407.16</time>
   <time name="total">  426.40  426.42</time>
   <energy>
    <i name="e_fr_energy">   -365.21870441 </i>
    <i name="e_wo_entrp">   -365.03107311 </i>
    <i name="e_0_energy">   -365.15616064 </i>
   </energy>
  </scstep>
  <scstep>
   <time name="dav">  315.83  315.67</time>
   <time name="total">  335.23  335.05</time>
   <energy>
    <i name="e_fr_energy">   -365.21869092 </i>
    <i name="e_wo_entrp">   -365.03107400 </i>
    <i name="e_0_energy">   -365.15615194 </i>
   </energy>
  </scstep>
  <scstep>
   <time name="dav">  302.23  302.11</time>
   <time name="total">  324.76  324.62</time>
   <energy>
    <i name="e_fr_energy">   -365.21868989 </i>
    <i name="e_wo_entrp">   -365.03107607 </i>
    <i name="e_0_energy">   -365.15615195 </i>
   </energy>
  </scstep>
  <scstep>
   <time name="dav">  301.39  301.37</time>
   <time name="total">  302.21  302.18</time>
   <energy>
    <i name="alphaZ">   9010.57505126 </i>
    <i name="ewald">-148962.18054694 </i>
    <i name="hartreedc"> -62239.00640502 </i>
    <i name="XCdc">   5611.95107771 </i>
    <i name="pawpsdc"> 171181.40429751 </i>
    <i name="pawaedc">-180212.01090415 </i>
    <i name="eentropy">     -0.18761383 </i>
    <i name="bandstr"> -18769.05507743 </i>
    <i name="atom"> 224013.29143063 </i>
    <i name="e_fr_energy">   -365.21869027 </i>
    <i name="e_wo_entrp">   -365.03107644 </i>
    <i name="e_0_energy">   -365.15615233 </i>
   </energy>
  </scstep>
  <structure>
   <crystal>
    <varray name="basis" >
     <v>       0.00000000       7.26150000       7.26150000 </v>
     <v>       7.26150000       0.00000000       7.26150000 </v>
     <v>       7.26150000       7.26150000       0.00000000 </v>
    </varray>
    <i name="volume">    765.78881842 </i>
    <varray name="rec_basis" >
     <v>      -0.06885630       0.06885630       0.06885630 </v>
     <v>       0.06885630      -0.06885630       0.06885630 </v>
     <v>       0.06885630       0.06885630      -0.06885630 </v>
    </varray>
   </crystal>
   <varray name="positions" >
    <v>       0.00000000       0.00000000       0.00000000 </v>
    <v>       0.00000000       0.00000000       0.25000000 </v>
    <v>       0.00000000       0.00000000       0.50000000 </v>
    <v>       0.00000000       0.00000000       0.75000000 </v>
    <v>       0.00000000       0.25000000       0.00000000 </v>
    <v>       0.00000000       0.25000000       0.25000000 </v>
    <v>       0.00000000       0.25000000       0.50000000 </v>
    <v>       0.00000000       0.25000000       0.75000000 </v>
    <v>       0.00000000       0.50000000       0.00000000 </v>
    <v>       0.00000000       0.50000000       0.25000000 </v>
    <v>       0.00000000       0.50000000       0.50000000 </v>
    <v>       0.00000000       0.50000000       0.75000000 </v>
    <v>       0.00000000       0.75000000       0.00000000 </v>
    <v>       0.00000000       0.75000000       0.25000000 </v>
    <v>       0.00000000       0.75000000       0.50000000 </v>
    <v>       0.00000000       0.75000000       0.75000000 </v>
    <v>       0.25000000       0.00000000       0.00000000 </v>
    <v>       0.25000000       0.00000000       0.25000000 </v>
    <v>       0.25000000       0.00000000       0.50000000 </v>
    <v>       0.25000000       0.00000000       0.75000000 </v>
    <v>       0.25000000       0.25000000       0.00000000 </v>
    <v>       0.25000000       0.25000000       0.25000000 </v>
    <v>       0.25000000       0.25000000       0.50000000 </v>
    <v>       0.25000000       0.25000000       0.75000000 </v>
    <v>       0.25000000       0.50000000       0.00000000 </v>
    <v>       0.25000000       0.50000000       0.25000000 </v>
    <v>       0.25000000       0.50000000       0.50000000 </v>
    <v>       0.25000000       0.50000000       0.75000000 </v>
    <v>       0.25000000       0.75000000       0.00000000 </v>
    <v>       0.25000000       0.75000000       0.25000000 </v>
    <v>       0.25000000       0.75000000       0.50000000 </v>
    <v>       0.25000000       0.75000000       0.75000000 </v>
    <v>       0.50000000       0.00000000       0.00000000 </v>
    <v>       0.50000000       0.00000000       0.25000000 </v>
    <v>       0.50000000       0.00000000       0.50000000 </v>
    <v>       0.50000000       0.00000000       0.75000000 </v>
    <v>       0.50000000       0.25000000       0.00000000 </v>
    <v>       0.50000000       0.25000000       0.25000000 </v>
    <v>       0.50000000       0.25000000       0.50000000 </v>
    <v>       0.50000000       0.25000000       0.75000000 </v>
    <v>       0.50000000       0.50000000       0.00000000 </v>
    <v>       0.50000000       0.50000000       0.25000000 </v>
    <v>       0.50000000       0.50000000       0.50000000 </v>
    <v>       0.50000000       0.50000000       0.75000000 </v>
    <v>       0.50000000       0.75000000       0.00000000 </v>
    <v>       0.50000000       0.75000000       0.25000000 </v>
    <v>       0.50000000       0.75000000       0.50000000 </v>
    <v>       0.50000000       0.75000000       0.75000000 </v>
    <v>       0.75000000       0.00000000       0.00000000 </v>
    <v>       0.75000000       0.00000000       0.25000000 </v>
    <v>       0.75000000       0.00000000       0.50000000 </v>
    <v>       0.75000000       0.00000000       0.75000000 </v>
    <v>       0.75000000       0.25000000       0.00000000 </v>
    <v>       0.75000000       0.25000000       0.25000000 </v>
    <v>       0.75000000       0.25000000       0.50000000 </v>
    <v>       0.75000000       0.25000000       0.75000000 </v>
    <v>       0.75000000       0.50000000       0.00000000 </v>
    <v>       0.75000000       0.50000000       0.25000000 </v>
    <v>       0.75000000       0.50000000       0.50000000 </v>
    <v>       0.75000000       0.50000000       0.75000000 </v>
    <v>       0.75000000       0.75000000       0.00000000 </v>
    <v>       0.75000000       0.75000000       0.25000000 </v>
    <v>       0.75000000       0.75000000       0.50000000 </v>
    <v>       0.75000000       0.75000000       0.75000000 </v>
   </varray>
  </structure>
  <varray name="forces" >
   <v>       0.00000000      -0.00000000      -0.00000000 </v>
   <v>      -0.00000000      -0.00000000      -0.00000000 </v>
   <v>       0.00000000       0.00000000       0.00000000 </v>
   <v>       0.00000000       0.00000000       0.00000000 </v>
   <v>       0.00000000       0.00000000      -0.00000000 </v>
   <v>      -0.00000000      -0.00000000       0.00000000 </v>
   <v>      -0.00000000       0.00000000      -0.00000000 </v>
   <v>       0.00000000       0.00000000      -0.00000000 </v>
   <v>       0.00000000       0.00000000       0.00000000 </v>
   <v>       0.00000000       0.00000000       0.00000000 </v>
   <v>       0.00000000      -0.00000000      -0.00000000 </v>
   <v>       0.00000000       0.00000000       0.00000000 </v>
   <v>       0.00000000      -0.00000000       0.00000000 </v>
   <v>      -0.00000000      -0.00000000       0.00000000 </v>
   <v>       0.00000000       0.00000000       0.00000000 </v>
   <v>       0.00000000       0.00000000      -0.00000000 </v>
   <v>       0.00000000      -0.00000000       0.00000000 </v>
   <v>      -0.00000000      -0.00000000       0.00000000 </v>
   <v>      -0.00000000       0.00000000      -0.00000000 </v>
   <v>       0.00000000      -0.00000000      -0.00000000 </v>
   <v>       0.00000000      -0.00000000      -0.00000000 </v>
   <v>      -0.00000000      -0.00000000       0.00000000 </v>
   <v>      -0.00000000       0.00000000       0.00000000 </v>
   <v>      -0.00000000       0.00000000      -0.00000000 </v>
   <v>      -0.00000000      -0.00000000       0.00000000 </v>
   <v>      -0.00000000      -0.00000000       0.00000000 </v>
   <v>      -0.00000000      -0.00000000      -0.00000000 </v>
   <v>       0.00000000      -0.00000000      -0.00000000 </v>
   <v>      -0.00000000       0.00000000       0.00000000 </v>
   <v>      -0.00000000      -0.00000000      -0.00000000 </v>
   <v>       0.00000000       0.00000000       0.00000000 </v>
   <v>       0.00000000       0.00000000      -0.00000000 </v>
   <v>      -0.00000000      -0.00000000      -0.00000000 </v>
   <v>      -0.00000000      -0.00000000       0.00000000 </v>
   <v>       0.00000000       0.00000000      -0.00000000 </v>
   <v>       0.00000000       0.00000000      -0.00000000 </v>
   <v>       0.00000000      -0.00000000       0.00000000 </v>
   <v>      -0.00000000      -0.00000000       0.00000000 </v>
   <v>      -0.00000000       0.00000000      -0.00000000 </v>
   <v>       0.00000000      -0.00000000      -0.00000000 </v>
   <v>      -0.00000000      -0.00000000       0.00000000 </v>
   <v>       0.00000000      -0.00000000       0.00000000 </v>
   <v>      -0.00000000       0.00000000      -0.00000000 </v>
   <v>       0.00000000       0.00000000      -0.00000000 </v>
   <v>       0.00000000      -0.00000000       0.00000000 </v>
   <v>       0.00000000      -0.00000000       0.00000000 </v>
   <v>       0.00000000       0.00000000      -0.00000000 </v>
   <v>       0.00000000       0.00000000      -0.00000000 </v>
   <v>       0.00000000      -0.00000000       0.00000000 </v>
   <v>      -0.00000000      -0.00000000       0.00000000 </v>
   <v>      -0.00000000       0.00000000       0.00000000 </v>
   <v>      -0.00000000       0.00000000      -0.00000000 </v>
   <v>       0.00000000      -0.00000000       0.00000000 </v>
   <v>      -0.00000000      -0.00000000      -0.00000000 </v>
   <v>      -0.00000000       0.00000000      -0.00000000 </v>
   <v>       0.00000000      -0.00000000      -0.00000000 </v>
   <v>      -0.00000000      -0.00000000       0.00000000 </v>
   <v>       0.00000000      -0.00000000      -0.00000000 </v>
   <v>      -0.00000000       0.00000000      -0.00000000 </v>
   <v>      -0.00000000       0.00000000       0.00000000 </v>
   <v>       0.00000000      -0.00000000      -0.00000000 </v>
   <v>      -0.00000000      -0.00000000      -0.00000000 </v>
   <v>       0.00000000       0.00000000      -0.00000000 </v>
   <v>       0.00000000       0.00000000      -0.00000000 </v>
  </varray>
  <varray name="stress" >
   <v>    -281.43987677       0.00000000       0.00000000 </v>
   <v>       0.00000000    -281.43987677       0.00000000 </v>
   <v>       0.00000000      -0.00000000    -281.43987677 </v>
  </varray>
  <energy>
   <i name="e_fr_energy">   -365.21869027 </i>
   <i name="e_wo_entrp">   -365.15615233 </i>
   <i name="e_0_energy">     -0.18761383 </i>
  </energy>
  <kpoints>
   <generation param="Gamma">
    <v type="int" name="divisions">       5        5        5 </v>
    <v name="usershift">      0.00000000       0.00000000       0.00000000 </v>
    <v name="genvec1">      0.20000000       0.00000000       0.00000000 </v>
    <v name="genvec2">      0.00000000       0.20000000       0.00000000 </v>
    <v name="genvec3">      0.00000000       0.00000000       0.20000000 </v>
    <v name="shift">      0.00000000       0.00000000       0.00000000 </v>
   </generation>
   <varray name="kpointlist" >
    <v>       0.00000000       0.00000000       0.00000000 </v>
    <v>       0.20000000       0.00000000       0.00000000 </v>
    <v>       0.40000000       0.00000000       0.00000000 </v>
    <v>       0.20000000       0.20000000       0.00000000 </v>
    <v>       0.40000000       0.20000000       0.00000000 </v>
    <v>      -0.40000000       0.20000000       0.00000000 </v>
    <v>      -0.20000000       0.20000000       0.00000000 </v>
    <v>       0.40000000       0.40000000       0.00000000 </v>
    <v>      -0.40000000       0.40000000       0.00000000 </v>
    <v>       0.00000000       0.20000000       0.20000000 </v>
    <v>       0.40000000       0.20000000       0.20000000 </v>
    <v>      -0.40000000       0.20000000       0.20000000 </v>
    <v>      -0.20000000       0.20000000       0.20000000 </v>
    <v>      -0.40000000       0.40000000       0.20000000 </v>
    <v>      -0.20000000       0.40000000       0.20000000 </v>
    <v>       0.40000000      -0.40000000       0.20000000 </v>
    <v>       0.00000000       0.40000000       0.40000000 </v>
    <v>      -0.20000000       0.40000000       0.40000000 </v>
   </varray>
   <varray name="weights" >
    <v>       0.00800000 </v>
    <v>       0.06400000 </v>
    <v>       0.06400000 </v>
    <v>       0.03200000 </v>
    <v>       0.12800000 </v>
    <v>       0.12800000 </v>
    <v>       0.06400000 </v>
    <v>       0.03200000 </v>
    <v>       0.06400000 </v>
    <v>       0.01600000 </v>
    <v>       0.03200000 </v>
    <v>       0.06400000 </v>
    <v>       0.06400000 </v>
    <v>       0.06400000 </v>
    <v>       0.06400000 </v>
    <v>       0.06400000 </v>
    <v>       0.01600000 </v>
    <v>       0.03200000 </v>
   </varray>
  </kpoints>
  <time name="totalsc"> 8151.3819417.07</time>
 </calculation>
 <calculation>
  <scstep>
   <time name="dav"> 1032.12 1031.49</time>
   <time name="total"> 1067.87 1067.22</time>
   <energy>
    <i name="alphaZ">   9010.57505126 </i>
    <i name="ewald">-148962.03763724 </i>
    <i name="hartreedc"> -62239.14773959 </i>
    <i name="XCdc">   5611.95187164 </i>
    <i name="pawpsdc"> 171181.28335069 </i>
    <i name="pawaedc">-180211.89320259 </i>
    <i name="eentropy">     -0.18759538 </i>
    <i name="bandstr"> -18768.98241650 </i>
    <i name="atom"> 224013.29143063 </i>
    <i name="e_fr_energy">   -365.14688709 </i>
    <i name="e_wo_entrp">   -364.95929171 </i>
    <i name="e_0_energy">   -365.08435529 </i>
   </energy>
  </scstep>
  <scstep>
   <time name="dav">  839.34  838.66</time>
   <time name="total">  878.26  877.54</time>
   <energy>
    <i name="e_fr_energy">   -365.21875454 </i>
    <i name="e_wo_entrp">   -365.03127916 </i>
    <i name="e_0_energy">   -365.15626275 </i>
   </energy>
  </scstep>
  <scstep>
   <time name="dav">  951.41  950.63</time>
   <time name="total">  992.34  991.54</time>
   <energy>
    <i name="e_fr_energy">   -365.21971934 </i>
    <i name="e_wo_entrp">   -365.03216302 </i>
    <i name="e_0_energy">   -365.15720057 </i>
   </energy>
  </scstep>
  <scstep>
   <time name="dav">  949.67  948.91</time>
   <time name="total">  988.62  987.82</time>
   <energy>
    <i name="e_fr_energy">   -365.21954635 </i>
    <i name="e_wo_entrp">   -365.03202315 </i>
    <i name="e_0_energy">   -365.15703862 </i>
   </energy>
  </scstep>
  <scstep>
   <time name="dav">  846.06  845.39</time>
   <time name="total">  885.22  884.51</time>
   <energy>
    <i name="e_fr_energy">   -365.21808205 </i>
    <i name="e_wo_entrp">   -365.03048621 </i>
    <i name="e_0_energy">   -365.15555011 </i>
   </energy>
  </scstep>
  <scstep>
   <time name="dav">  970.45  969.67</time>
   <time name="total"> 1008.28 1007.46</time>
   <energy>
    <i name="e_fr_energy">   -365.21807086 </i>
    <i name="e_wo_entrp">   -365.03047237 </i>
    <i name="e_0_energy">   -365.15553803 </i>
   </energy>
  </scstep>
  <scstep>
   <time name="dav">  864.39  863.69</time>
   <time name="total">  902.67  901.94</time>
   <energy>
    <i name="e_fr_energy">   -365.21803064 </i>
    <i name="e_wo_entrp">   -365.03043119 </i>
    <i name="e_0_energy">   -365.15549749 </i>
   </energy>
  </scstep>
  <scstep>
   <time name="dav">  865.19  864.49</time>
   <time name="total">  903.34  902.61</time>
   <energy>
    <i name="e_fr_energy">   -365.21801402 </i>
    <i name="e_wo_entrp">   -365.03041327 </i>
    <i name="e_0_energy">   -365.15548043 </i>
   </energy>
  </scstep>
  <scstep>
   <time name="dav">  873.99  873.28</time>
   <time name="total">  912.14  911.40</time>
   <energy>
    <i name="e_fr_energy">   -365.21803628 </i>
    <i name="e_wo_entrp">   -365.03043750 </i>
    <i name="e_0_energy">   -365.15550335 </i>
   </energy>
  </scstep>
  <scstep>
   <time name="dav">  983.11  982.42</time>
   <time name="total"> 1016.26 1015.54</time>
   <energy>
    <i name="e_fr_energy">   -365.21793051 </i>
    <i name="e_wo_entrp">   -365.03032982 </i>
    <i name="e_0_energy">   -365.15539694 </i>
   </energy>
  </scstep>
  <scstep>
   <time name="dav"> 1031.66 1030.83</time>
   <time name="total"> 1070.62 1069.75</time>
   <energy>
    <i name="e_fr_energy">   -365.21793744 </i>
    <i name="e_wo_entrp">   -365.03033717 </i>
    <i name="e_0_energy">   -365.15540402 </i>
   </energy>
  </scstep>
  <scstep>
   <time name="dav">  858.65  858.05</time>
   <time name="total">  892.37  891.75</time>
   <energy>
    <i name="e_fr_energy">   -365.21793254 </i>
    <i name="e_wo_entrp">   -365.03033397 </i>
    <i name="e_0_energy">   -365.15539969 </i>
   </energy>
  </scstep>
  <scstep>
   <time name="dav">  569.22  568.76</time>
   <time name="total">  570.04  569.58</time>
   <energy>
    <i name="alphaZ">   9010.57505126 </i>
    <i name="ewald">-148962.03763724 </i>
    <i name="hartreedc"> -62239.14721607 </i>
    <i name="XCdc">   5611.95162006 </i>
    <i name="pawpsdc"> 171181.28071579 </i>
    <i name="pawaedc">-180211.89162480 </i>
    <i name="eentropy">     -0.18759881 </i>
    <i name="bandstr"> -18769.05267247 </i>
    <i name="atom"> 224013.29143063 </i>
    <i name="e_fr_energy">   -365.21793165 </i>
    <i name="e_wo_entrp">   -365.03033284 </i>
    <i name="e_0_energy">   -365.15539872 </i>
   </energy>
  </scstep>
  <structure>
   <crystal>
    <varray name="basis" >
     <v>       0.00000000       7.26150000       7.26150000 </v>
     <v>       7.26150000       0.00000000       7.26150000 </v>
     <v>       7.26150000       7.26150000       0.00000000 </v>
    </varray>
    <i name="volume">    765.78881842 </i>
    <varray name="rec_basis" >
     <v>      -0.06885630       0.06885630       0.06885630 </v>
     <v>       0.06885630      -0.06885630       0.06885630 </v>
     <v>       0.06885630       0.06885630      -0.06885630 </v>
    </varray>
   </crystal>
   <varray name="positions" >
    <v>      -0.00103284       0.00103284       0.00103284 </v>
    <v>       0.00000000       0.00000000       0.25000000 </v>
    <v>       0.00000000       0.00000000       0.50000000 </v>
    <v>       0.00000000       0.00000000       0.75000000 </v>
    <v>       0.00000000       0.25000000       0.00000000 </v>
    <v>       0.00000000       0.25000000       0.25000000 </v>
    <v>       0.00000000       0.25000000       0.50000000 </v>
    <v>       0.00000000       0.25000000       0.75000000 </v>
    <v>       0.00000000       0.50000000       0.00000000 </v>
    <v>       0.00000000       0.50000000       0.25000000 </v>
    <v>       0.00000000       0.50000000       0.50000000 </v>
    <v>       0.00000000       0.50000000       0.75000000 </v>
    <v>       0.00000000       0.75000000       0.00000000 </v>
    <v>       0.00000000       0.75000000       0.25000000 </v>
    <v>       0.00000000       0.75000000       0.50000000 </v>
    <v>       0.00000000       0.75000000       0.75000000 </v>
    <v>       0.25000000       0.00000000       0.00000000 </v>
    <v>       0.25000000       0.00000000       0.25000000 </v>
    <v>       0.25000000       0.00000000       0.50000000 </v>
    <v>       0.25000000       0.00000000       0.75000000 </v>
    <v>       0.25000000       0.25000000       0.00000000 </v>
    <v>       0.25000000       0.25000000       0.25000000 </v>
    <v>       0.25000000       0.25000000       0.50000000 </v>
    <v>       0.25000000       0.25000000       0.75000000 </v>
    <v>       0.25000000       0.50000000       0.00000000 </v>
    <v>       0.25000000       0.50000000       0.25000000 </v>
    <v>       0.25000000       0.50000000       0.50000000 </v>
    <v>       0.25000000       0.50000000       0.75000000 </v>
    <v>       0.25000000       0.75000000       0.00000000 </v>
    <v>       0.25000000       0.75000000       0.25000000 </v>
    <v>       0.25000000       0.75000000       0.50000000 </v>
    <v>       0.25000000       0.75000000       0.75000000 </v>
    <v>       0.50000000       0.00000000       0.00000000 </v>
    <v>       0.50000000       0.00000000       0.25000000 </v>
    <v>       0.50000000       0.00000000       0.50000000 </v>
    <v>       0.50000000       0.00000000       0.75000000 </v>
    <v>       0.50000000       0.25000000       0.00000000 </v>
    <v>       0.50000000       0.25000000       0.25000000 </v>
    <v>       0.50000000       0.25000000       0.50000000 </v>
    <v>       0.50000000       0.25000000       0.75000000 </v>
    <v>       0.50000000       0.50000000       0.00000000 </v>
    <v>       0.50000000       0.50000000       0.25000000 </v>
    <v>       0.50000000       0.50000000       0.50000000 </v>
    <v>       0.50000000       0.50000000       0.75000000 </v>
    <v>       0.50000000       0.75000000       0.00000000 </v>
    <v>       0.50000000       0.75000000       0.25000000 </v>
    <v>       0.50000000       0.75000000       0.50000000 </v>
    <v>       0.50000000       0.75000000       0.75000000 </v>
    <v>       0.75000000       0.00000000       0.00000000 </v>
    <v>       0.75000000       0.00000000       0.25000000 </v>
    <v>       0.75000000       0.00000000       0.50000000 </v>
    <v>       0.75000000       0.00000000       0.75000000 </v>
    <v>       0.75000000       0.25000000       0.00000000 </v>
    <v>       0.75000000       0.25000000       0.25000000 </v>
    <v>       0.75000000       0.25000000       0.50000000 </v>
    <v>       0.75000000       0.25000000       0.75000000 </v>
    <v>       0.75000000       0.50000000       0.00000000 </v>
    <v>       0.75000000       0.50000000       0.25000000 </v>
    <v>       0.75000000       0.50000000       0.50000000 </v>
    <v>       0.75000000       0.50000000       0.75000000 </v>
    <v>       0.75000000       0.75000000       0.00000000 </v>
    <v>       0.75000000       0.75000000       0.25000000 </v>
    <v>       0.75000000       0.75000000       0.50000000 </v>
    <v>       0.75000000       0.75000000       0.75000000 </v>
   </varray>
  </structure>
  <varray name="forces" >
   <v>      -0.10425659      -0.00000000       0.00000000 </v>
   <v>       0.01050886       0.01111555       0.00000000 </v>
   <v>       0.00017883      -0.00026090       0.00000000 </v>
   <v>       0.00985776       0.01032135       0.00000000 </v>
   <v>       0.01050886      -0.00000000       0.01111555 </v>
   <v>       0.00119673       0.00058568       0.00058568 </v>
   <v>       0.00040172       0.00060410      -0.00030181 </v>
   <v>       0.00070283       0.00002251      -0.00002251 </v>
   <v>       0.00017883      -0.00000000      -0.00026090 </v>
   <v>       0.00040172      -0.00030181       0.00060410 </v>
   <v>       0.00025901      -0.00000000       0.00000000 </v>
   <v>       0.00042729      -0.00032331       0.00054739 </v>
   <v>       0.00985776      -0.00000000       0.01032135 </v>
   <v>       0.00070283      -0.00002251       0.00002251 </v>
   <v>       0.00042729       0.00054739      -0.00032331 </v>
   <v>       0.00124116       0.00055005       0.00055005 </v>
   <v>       0.00070283      -0.00002251      -0.00002251 </v>
   <v>       0.00042729       0.00054739       0.00032331 </v>
   <v>       0.00124116       0.00055005      -0.00055005 </v>
   <v>       0.00985776      -0.00000000      -0.01032135 </v>
   <v>       0.00042729       0.00032331       0.00054739 </v>
   <v>       0.00015872      -0.00000000       0.00000000 </v>
   <v>       0.00040172       0.00030181      -0.00060410 </v>
   <v>      -0.00037672      -0.00000000      -0.00004973 </v>
   <v>       0.00124116      -0.00055005       0.00055005 </v>
   <v>       0.00040172      -0.00060410       0.00030181 </v>
   <v>      -0.00011483      -0.00004773      -0.00004773 </v>
   <v>       0.00016802      -0.00000000      -0.00019479 </v>
   <v>       0.00985776      -0.01032135       0.00000000 </v>
   <v>      -0.00037672      -0.00004973       0.00000000 </v>
   <v>       0.00016802      -0.00019479       0.00000000 </v>
   <v>       0.00170725      -0.00000000       0.00000000 </v>
   <v>       0.00025901      -0.00000000      -0.00000000 </v>
   <v>       0.00042729      -0.00032331      -0.00054739 </v>
   <v>       0.00017883      -0.00000000       0.00026090 </v>
   <v>       0.00040172      -0.00030181      -0.00060410 </v>
   <v>       0.00042729      -0.00054739      -0.00032331 </v>
   <v>       0.00119673      -0.00058568      -0.00058568 </v>
   <v>       0.00005870      -0.00000000       0.00009241 </v>
   <v>      -0.00011483       0.00004773      -0.00004773 </v>
   <v>       0.00017883       0.00026090       0.00000000 </v>
   <v>       0.00005870       0.00009241       0.00000000 </v>
   <v>      -0.00019968      -0.00000000       0.00000000 </v>
   <v>       0.00016802       0.00019479       0.00000000 </v>
   <v>       0.00040172      -0.00060410      -0.00030181 </v>
   <v>      -0.00011483      -0.00004773       0.00004773 </v>
   <v>       0.00016802      -0.00000000       0.00019479 </v>
   <v>       0.00124116      -0.00055005      -0.00055005 </v>
   <v>       0.00070283       0.00002251       0.00002251 </v>
   <v>       0.01050886      -0.00000000      -0.01111555 </v>
   <v>       0.00119673       0.00058568      -0.00058568 </v>
   <v>       0.00040172       0.00060410       0.00030181 </v>
   <v>       0.01050886      -0.01111555       0.00000000 </v>
   <v>       0.00159608      -0.00000000       0.00000000 </v>
   <v>       0.00005870      -0.00009241      -0.00000000 </v>
   <v>      -0.00037672       0.00004973       0.00000000 </v>
   <v>       0.00119673      -0.00058568       0.00058568 </v>
   <v>       0.00005870      -0.00000000      -0.00009241 </v>
   <v>      -0.00011483       0.00004773       0.00004773 </v>
   <v>       0.00042729      -0.00054739       0.00032331 </v>
   <v>       0.00040172       0.00030181       0.00060410 </v>
   <v>      -0.00037672      -0.00000000       0.00004973 </v>
   <v>       0.00042729       0.00032331      -0.00054739 </v>
   <v>       0.00015872      -0.00000000       0.00000000 </v>
  </varray>
  <varray name="stress" >
   <v>    -281.46963193       0.00000000      -0.00000000 </v>
   <v>       0.00000000    -281.47177187       0.00000000 </v>
   <v>       0.00000000       0.00000000    -281.47177187 </v>
  </varray>
  <energy>
   <i name="e_fr_energy">   -365.21793165 </i>
   <i name="e_wo_entrp">   -365.15539872 </i>
   <i name="e_0_energy">     -0.18759881 </i>
  </energy>
  <kpoints>
   <generation param="Gamma">
    <v type="int" name="divisions">       5        5        5 </v>
    <v name="usershift">      0.00000000       0.00000000       0.00000000 </v>
    <v name="genvec1">      0.20000000       0.00000000       0.00000000 </v>
    <v name="genvec2">      0.00000000       0.20000000       0.00000000 </v>
    <v name="genvec3">      0.00000000       0.00000000       0.20000000 </v>
    <v name="shift">      0.00000000       0.00000000       0.00000000 </v>
   </generation>
   <varray name="kpointlist" >
    <v>       0.00000000       0.00000000       0.00000000 </v>
    <v>       0.20000000       0.00000000       0.00000000 </v>
    <v>       0.40000000       0.00000000       0.00000000 </v>
    <v>       0.20000000       0.20000000       0.00000000 </v>
    <v>       0.40000000       0.20000000       0.00000000 </v>
    <v>      -0.40000000       0.20000000       0.00000000 </v>
    <v>      -0.20000000       0.20000000       0.00000000 </v>
    <v>       0.40000000       0.40000000       0.00000000 </v>
    <v>      -0.40000000       0.40000000       0.00000000 </v>
    <v>       0.00000000       0.20000000       0.20000000 </v>
    <v>       0.40000000       0.20000000       0.20000000 </v>
    <v>      -0.40000000       0.20000000       0.20000000 </v>
    <v>      -0.20000000       0.20000000       0.20000000 </v>
    <v>      -0.40000000       0.40000000       0.20000000 </v>
    <v>      -0.20000000       0.40000000       0.20000000 </v>
    <v>       0.40000000      -0.40000000       0.20000000 </v>
    <v>       0.00000000       0.40000000       0.40000000 </v>
    <v>      -0.20000000       0.40000000       0.40000000 </v>
   </varray>
   <varray name="weights" >
    <v>       0.00800000 </v>
    <v>       0.06400000 </v>
    <v>       0.06400000 </v>
    <v>       0.03200000 </v>
    <v>       0.12800000 </v>
    <v>       0.12800000 </v>
    <v>       0.06400000 </v>
    <v>       0.03200000 </v>
    <v>       0.06400000 </v>
    <v>       0.01600000 </v>
    <v>       0.03200000 </v>
    <v>       0.06400000 </v>
    <v>       0.06400000 </v>
    <v>       0.06400000 </v>
    <v>       0.06400000 </v>
    <v>       0.06400000 </v>
    <v>       0.01600000 </v>
    <v>       0.03200000 </v>
   </varray>
  </kpoints>
  <time name="totalsc">13017.3913010.17</time>
 </calculation>
 <calculation>
  <scstep>
   <time name="dav">  945.38  944.64</time>
   <time name="total">  979.34  978.57</time>
   <energy>
    <i name="alphaZ">   9010.57505126 </i>
    <i name="ewald">-148962.03763724 </i>
    <i name="hartreedc"> -62239.18209457 </i>
    <i name="XCdc">   5611.95359282 </i>
    <i name="pawpsdc"> 171181.25951951 </i>
    <i name="pawaedc">-180211.86925280 </i>
    <i name="eentropy">     -0.18752979 </i>
    <i name="bandstr"> -18768.76364402 </i>
    <i name="atom"> 224013.29143063 </i>
    <i name="e_fr_energy">   -364.96056420 </i>
    <i name="e_wo_entrp">   -364.77303441 </i>
    <i name="e_0_energy">   -364.89805427 </i>
   </energy>
  </scstep>
  <scstep>
   <time name="dav">  793.44  792.82</time>
   <time name="total">  825.21  824.56</time>
   <energy>
    <i name="e_fr_energy">   -365.23325070 </i>
    <i name="e_wo_entrp">   -365.04675297 </i>
    <i name="e_0_energy">   -365.17108479 </i>
   </energy>
  </scstep>
  <scstep>
   <time name="dav">  874.53  873.83</time>
   <time name="total">  906.87  906.14</time>
   <energy>
    <i name="e_fr_energy">   -365.22069667 </i>
    <i name="e_wo_entrp">   -365.03311299 </i>
    <i name="e_0_energy">   -365.15816878 </i>
   </energy>
  </scstep>
  <scstep>
   <time name="dav">  910.31  909.58</time>
   <time name="total">  939.32  938.56</time>
   <energy>
    <i name="e_fr_energy">   -365.22712093 </i>
    <i name="e_wo_entrp">   -365.03995164 </i>
    <i name="e_0_energy">   -365.16473117 </i>
   </energy>
  </scstep>
  <scstep>
   <time name="dav">  812.33  811.67</time>
   <time name="total">  844.91  844.22</time>
   <energy>
    <i name="e_fr_energy">   -365.21861047 </i>
    <i name="e_wo_entrp">   -365.03101782 </i>
    <i name="e_0_energy">   -365.15607959 </i>
   </energy>
  </scstep>
  <scstep>
   <time name="dav">  916.55  915.81</time>
   <time name="total">  947.91  947.14</time>
   <energy>
    <i name="e_fr_energy">   -365.21839453 </i>
    <i name="e_wo_entrp">   -365.03079134 </i>
    <i name="e_0_energy">   -365.15586013 </i>
   </energy>
  </scstep>
  <scstep>
   <time name="dav">  754.42  753.80</time>
   <time name="total">  776.00  775.37</time>
   <energy>
    <i name="e_fr_energy">   -365.21832012 </i>
    <i name="e_wo_entrp">   -365.03071782 </i>
    <i name="e_0_energy">   -365.15578602 </i>
   </energy>
  </scstep>
  <scstep>
   <time name="dav">  654.77  654.24</time>
   <time name="total">  676.28  675.73</time>
   <energy>
    <i name="e_fr_energy">   -365.21817173 </i>
    <i name="e_wo_entrp">   -365.03056948 </i>
    <i name="e_0_energy">   -365.15563765 </i>
   </energy>
  </scstep>
  <scstep>
   <time name="dav">  645.83  771.51</time>
   <time name="total">  665.87  810.85</time>
   <energy>
    <i name="e_fr_energy">   -365.21827152 </i>
    <i name="e_wo_entrp">   -365.03067189 </i>
    <i name="e_0_energy">   -365.15573831 </i>
   </energy>
  </scstep>
  <scstep>
   <time name="dav">  668.00 1334.30</time>
   <time name="total">  688.03 1374.33</time>
   <energy>
    <i name="e_fr_energy">   -365.21806971 </i>
    <i name="e_wo_entrp">   -365.03047652 </i>
    <i name="e_0_energy">   -365.15553864 </i>
   </energy>
  </scstep>
  <scstep>
   <time name="dav">  662.26 1322.85</time>
   <time name="total">  682.31 1362.92</time>
   <energy>
    <i name="e_fr_energy">   -365.21792759 </i>
    <i name="e_wo_entrp">   -365.03032571 </i>
    <i name="e_0_energy">   -365.15539363 </i>
   </energy>
  </scstep>
  <scstep>
   <time name="dav">  740.68 1479.52</time>
   <time name="total">  760.70 1519.52</time>
   <energy>
    <i name="e_fr_energy">   -365.21794534 </i>
    <i name="e_wo_entrp">   -365.03034836 </i>
    <i name="e_0_energy">   -365.15541301 </i>
   </energy>
  </scstep>
  <scstep>
   <time name="dav">  580.89 1160.41</time>
   <time name="total">  600.83 1200.26</time>
   <energy>
    <i name="e_fr_energy">   -365.21793239 </i>
    <i name="e_wo_entrp">   -365.03033362 </i>
    <i name="e_0_energy">   -365.15539946 </i>
   </energy>
  </scstep>
  <scstep>
   <time name="dav">  491.58  981.94</time>
   <time name="total">  511.61 1021.96</time>
   <energy>
    <i name="e_fr_energy">   -365.21793360 </i>
    <i name="e_wo_entrp">   -365.03033518 </i>
    <i name="e_0_energy">   -365.15540079 </i>
   </energy>
  </scstep>
  <scstep>
   <time name="dav">  390.03  777.83</time>
   <time name="total">  410.00  817.75</time>
   <energy>
    <i name="e_fr_energy">   -365.21793163 </i>
    <i name="e_wo_entrp">   -365.03033023 </i>
    <i name="e_0_energy">   -365.15539783 </i>
   </energy>
  </scstep>
  <scstep>
   <time name="dav">  344.89  688.95</time>
   <time name="total">  345.60  690.37</time>
   <energy>
    <i name="alphaZ">   9010.57505126 </i>
    <i name="ewald">-148962.03763724 </i>
    <i name="hartreedc"> -62239.13369084 </i>
    <i name="XCdc">   5611.95111571 </i>
    <i name="pawpsdc"> 171181.24808829 </i>
    <i name="pawaedc">-180211.85891901 </i>
    <i name="eentropy">     -0.18760015 </i>
    <i name="bandstr"> -18769.06577075 </i>
    <i name="atom"> 224013.29143063 </i>
    <i name="e_fr_energy">   -365.21793210 </i>
    <i name="e_wo_entrp">   -365.03033195 </i>
    <i name="e_0_energy">   -365.15539872 </i>
   </energy>
  </scstep>
  <structure>
   <crystal>
    <varray name="basis" >
     <v>       0.00000000       7.26150000       7.26150000 </v>
     <v>       7.26150000       0.00000000       7.26150000 </v>
     <v>       7.26150000       7.26150000       0.00000000 </v>
    </varray>
    <i name="volume">    765.78881842 </i>
    <varray name="rec_basis" >
     <v>      -0.06885630       0.06885630       0.06885630 </v>
     <v>       0.06885630      -0.06885630       0.06885630 </v>
     <v>       0.06885630       0.06885630      -0.06885630 </v>
    </varray>
   </crystal>
   <varray name="positions" >
    <v>       0.00103284      -0.00103284      -0.00103284 </v>
    <v>       0.00000000       0.00000000       0.25000000 </v>
    <v>       0.00000000       0.00000000       0.50000000 </v>
    <v>       0.00000000       0.00000000       0.75000000 </v>
    <v>       0.00000000       0.25000000       0.00000000 </v>
    <v>       0.00000000       0.25000000       0.25000000 </v>
    <v>       0.00000000       0.25000000       0.50000000 </v>
    <v>       0.00000000       0.25000000       0.75000000 </v>
    <v>       0.00000000       0.50000000       0.00000000 </v>
    <v>       0.00000000       0.50000000       0.25000000 </v>
    <v>       0.00000000       0.50000000       0.50000000 </v>
    <v>       0.00000000       0.50000000       0.75000000 </v>
    <v>       0.00000000       0.75000000       0.00000000 </v>
    <v>       0.00000000       0.75000000       0.25000000 </v>
    <v>       0.00000000       0.75000000       0.50000000 </v>
    <v>       0.00000000       0.75000000       0.75000000 </v>
    <v>       0.25000000       0.00000000       0.00000000 </v>
    <v>       0.25000000       0.00000000       0.25000000 </v>
    <v>       0.25000000       0.00000000       0.50000000 </v>
    <v>       0.25000000       0.00000000       0.75000000 </v>
    <v>       0.25000000       0.25000000       0.00000000 </v>
    <v>       0.25000000       0.25000000       0.25000000 </v>
    <v>       0.25000000       0.25000000       0.50000000 </v>
    <v>       0.25000000       0.25000000       0.75000000 </v>
    <v>       0.25000000       0.50000000       0.00000000 </v>
    <v>       0.25000000       0.50000000       0.25000000 </v>
    <v>       0.25000000       0.50000000       0.50000000 </v>
    <v>       0.25000000       0.50000000       0.75000000 </v>
    <v>       0.25000000       0.75000000       0.00000000 </v>
    <v>       0.25000000       0.75000000       0.25000000 </v>
    <v>       0.25000000       0.75000000       0.50000000 </v>
    <v>       0.25000000       0.75000000       0.75000000 </v>
    <v>       0.50000000       0.00000000       0.00000000 </v>
    <v>       0.50000000       0.00000000       0.25000000 </v>
    <v>       0.50000000       0.00000000       0.50000000 </v>
    <v>       0.50000000       0.00000000       0.75000000 </v>
    <v>       0.50000000       0.25000000       0.00000000 </v>
    <v>       0.50000000       0.25000000       0.25000000 </v>
    <v>       0.50000000       0.25000000       0.50000000 </v>
    <v>       0.50000000       0.25000000       0.75000000 </v>
    <v>       0.50000000       0.50000000       0.00000000 </v>
    <v>       0.50000000       0.50000000       0.25000000 </v>
    <v>       0.50000000       0.50000000       0.50000000 </v>
    <v>       0.50000000       0.50000000       0.75000000 </v>
    <v>       0.50000000       0.75000000       0.00000000 </v>
    <v>       0.50000000       0.75000000       0.25000000 </v>
    <v>       0.50000000       0.75000000       0.50000000 </v>
    <v>       0.50000000       0.75000000       0.75000000 </v>
    <v>       0.75000000       0.00000000       0.00000000 </v>
    <v>       0.75000000       0.00000000       0.25000000 </v>
    <v>       0.75000000       0.00000000       0.50000000 </v>
    <v>       0.75000000       0.00000000       0.75000000 </v>
    <v>       0.75000000       0.25000000       0.00000000 </v>
    <v>       0.75000000       0.25000000       0.25000000 </v>
    <v>       0.75000000       0.25000000       0.50000000 </v>
    <v>       0.75000000       0.25000000       0.75000000 </v>
    <v>       0.75000000       0.50000000       0.00000000 </v>
    <v>       0.75000000       0.50000000       0.25000000 </v>
    <v>       0.75000000       0.50000000       0.50000000 </v>
    <v>       0.75000000       0.50000000       0.75000000 </v>
    <v>       0.75000000       0.75000000       0.00000000 </v>
    <v>       0.75000000       0.75000000       0.25000000 </v>
    <v>       0.75000000       0.75000000       0.50000000 </v>
    <v>       0.75000000       0.75000000       0.75000000 </v>
   </varray>
  </structure>
  <varray name="forces" >
   <v>       0.10797050       0.00000000       0.00000000 </v>
   <v>      -0.01042560      -0.01119998       0.00000000 </v>
   <v>      -0.00025368       0.00015377       0.00000000 </v>
   <v>      -0.01101756      -0.01189217       0.00000000 </v>
   <v>      -0.01042560       0.00000000      -0.01119998 </v>
   <v>      -0.00119370      -0.00054565      -0.00054565 </v>
   <v>      -0.00039859      -0.00060444       0.00034183 </v>
   <v>      -0.00047023       0.00004101      -0.00004101 </v>
   <v>      -0.00025368       0.00000000       0.00015377 </v>
   <v>      -0.00039859       0.00034183      -0.00060444 </v>
   <v>      -0.00022986       0.00000000       0.00000000 </v>
   <v>      -0.00039038       0.00030806      -0.00054223 </v>
   <v>      -0.01101756       0.00000000      -0.01189217 </v>
   <v>      -0.00047023      -0.00004101       0.00004101 </v>
   <v>      -0.00039038      -0.00054223       0.00030806 </v>
   <v>      -0.00124886      -0.00057940      -0.00057940 </v>
   <v>      -0.00047023      -0.00004101      -0.00004101 </v>
   <v>      -0.00039038      -0.00054223      -0.00030806 </v>
   <v>      -0.00124886      -0.00057940       0.00057940 </v>
   <v>      -0.01101756       0.00000000       0.01189217 </v>
   <v>      -0.00039038      -0.00030806      -0.00054223 </v>
   <v>      -0.00020997       0.00000000       0.00000000 </v>
   <v>      -0.00039859      -0.00034183       0.00060444 </v>
   <v>       0.00042408       0.00000000       0.00003790 </v>
   <v>      -0.00124886       0.00057940      -0.00057940 </v>
   <v>      -0.00039859       0.00060444      -0.00034183 </v>
   <v>       0.00013437      -0.00003403      -0.00003403 </v>
   <v>      -0.00013591       0.00000000       0.00006967 </v>
   <v>      -0.01101756       0.01189217       0.00000000 </v>
   <v>       0.00042408       0.00003790       0.00000000 </v>
   <v>      -0.00013591       0.00006967       0.00000000 </v>
   <v>      -0.00175285       0.00000000       0.00000000 </v>
   <v>      -0.00022986       0.00000000       0.00000000 </v>
   <v>      -0.00039038       0.00030806       0.00054223 </v>
   <v>      -0.00025368       0.00000000      -0.00015377 </v>
   <v>      -0.00039859       0.00034183       0.00060444 </v>
   <v>      -0.00039038       0.00054223       0.00030806 </v>
   <v>      -0.00119370       0.00054565       0.00054565 </v>
   <v>      -0.00018933       0.00000000      -0.00013871 </v>
   <v>       0.00013437       0.00003403      -0.00003403 </v>
   <v>      -0.00025368      -0.00015377       0.00000000 </v>
   <v>      -0.00018933      -0.00013871       0.00000000 </v>
   <v>       0.00024273       0.00000000       0.00000000 </v>
   <v>      -0.00013591      -0.00006967       0.00000000 </v>
   <v>      -0.00039859       0.00060444       0.00034183 </v>
   <v>       0.00013437      -0.00003403       0.00003403 </v>
   <v>      -0.00013591       0.00000000      -0.00006967 </v>
   <v>      -0.00124886       0.00057940       0.00057940 </v>
   <v>      -0.00047023       0.00004101       0.00004101 </v>
   <v>      -0.01042560       0.00000000       0.01119998 </v>
   <v>      -0.00119370      -0.00054565       0.00054565 </v>
   <v>      -0.00039859      -0.00060444      -0.00034183 </v>
   <v>      -0.01042560       0.01119998       0.00000000 </v>
   <v>      -0.00176334       0.00000000       0.00000000 </v>
   <v>      -0.00018933       0.00013871       0.00000000 </v>
   <v>       0.00042408      -0.00003790       0.00000000 </v>
   <v>      -0.00119370       0.00054565      -0.00054565 </v>
   <v>      -0.00018933       0.00000000       0.00013871 </v>
   <v>       0.00013437       0.00003403       0.00003403 </v>
   <v>      -0.00039038       0.00054223      -0.00030806 </v>
   <v>      -0.00039859      -0.00034183      -0.00060444 </v>
   <v>       0.00042408       0.00000000      -0.00003790 </v>
   <v>      -0.00039038      -0.00030806       0.00054223 </v>
   <v>      -0.00020997       0.00000000       0.00000000 </v>
  </varray>
  <varray name="stress" >
   <v>    -281.42098055       0.00000000       0.00000000 </v>
   <v>      -0.00000000    -281.41639400       0.00000000 </v>
   <v>      -0.00000000       0.00000000    -281.41639400 </v>
  </varray>
  <energy>
   <i name="e_fr_energy">   -365.21793210 </i>
   <i name="e_wo_entrp">   -365.15539872 </i>
   <i name="e_0_energy">     -0.18760015 </i>
  </energy>
  <dynmat>
   <varray name="hessian" >
    <v>      -0.12053564       0.00000000       0.00000000       0.01187306       0.01264527      -0.00000000       0.00024565      -0.00023551       0.00000000       0.01187306       0.01264527       0.00000000       0.01187306       0.00000000       0.01264527       0.00138594       0.00064732       0.00064732       0.00045947       0.00064732      -0.00036208       0.00066625       0.00000000       0.00000000       0.00024565       0.00000000      -0.00023551       0.00045947      -0.00036208       0.00064732       0.00027766      -0.00000000       0.00000000       0.00045947      -0.00036208       0.00064732       0.01187306      -0.00000000       0.01264527       0.00066625      -0.00000000      -0.00000000       0.00045947       0.00064732      -0.00036208       0.00138594       0.00064732       0.00064732       0.00066625       0.00000000      -0.00000000       0.00045947       0.00064732       0.00036208       0.00138594       0.00064732      -0.00064732       0.01187306       0.00000000      -0.01264527       0.00045947       0.00036208       0.00064732       0.00020940      -0.00000000       0.00000000       0.00045947       0.00036208      -0.00064732      -0.00045482      -0.00000000       0.00000000       0.00138594      -0.00064732       0.00064732       0.00045947      -0.00064732       0.00036208      -0.00014153      -0.00000000       0.00000000       0.00015674      -0.00000000      -0.00014073       0.01187306      -0.01264527      -0.00000000      -0.00045482       0.00000000       0.00000000       0.00015674      -0.00014073       0.00000000       0.00193659       0.00000000       0.00000000       0.00027766       0.00000000       0.00000000       0.00045947      -0.00036208      -0.00064732       0.00024565      -0.00000000       0.00023551       0.00045947      -0.00036208      -0.00064732       0.00045947      -0.00064732      -0.00036208       0.00138594      -0.00064732      -0.00064732       0.00015674      -0.00000000       0.00014073      -0.00014153      -0.00000000      -0.00000000       0.00024565       0.00023551       0.00000000       0.00015674       0.00014073       0.00000000      -0.00025127       0.00000000      -0.00000000       0.00015674       0.00014073      -0.00000000       0.00045947      -0.00064732      -0.00036208      -0.00014153       0.00000000       0.00000000       0.00015674       0.00000000       0.00014073       0.00138594      -0.00064732      -0.00064732       0.00066625      -0.00000000       0.00000000       0.01187306      -0.00000000      -0.01264527       0.00138594       0.00064732      -0.00064732       0.00045947       0.00064732       0.00036208       0.01187306      -0.01264527       0.00000000       0.00193659       0.00000000      -0.00000000       0.00015674      -0.00014073      -0.00000000      -0.00045482      -0.00000000       0.00000000       0.00138594      -0.00064732       0.00064732       0.00015674       0.00000000      -0.00014073      -0.00014153       0.00000000      -0.00000000       0.00045947      -0.00064732       0.00036208       0.00045947       0.00036208       0.00064732      -0.00045482      -0.00000000       0.00000000       0.00045947       0.00036208      -0.00064732       0.00020940      -0.00000000       0.00000000 </v>
    <v>       0.00000000      -0.12053564       0.00000000       0.01264527       0.01187306       0.00000000      -0.00023551       0.00024565       0.00000000       0.01264527       0.01187306      -0.00000000      -0.00000000       0.00066625       0.00000000       0.00064732       0.00045947       0.00036208       0.00064732       0.00138594      -0.00064732      -0.00000000       0.01187306      -0.01264527       0.00000000       0.00027766       0.00000000      -0.00036208       0.00045947      -0.00064732      -0.00000000       0.00024565       0.00023551      -0.00036208       0.00045947      -0.00064732       0.00000000       0.00066625      -0.00000000       0.00000000       0.01187306      -0.01264527       0.00064732       0.00138594      -0.00064732       0.00064732       0.00045947       0.00036208      -0.00000000       0.01187306       0.01264527       0.00064732       0.00138594       0.00064732       0.00064732       0.00045947      -0.00036208      -0.00000000       0.00066625      -0.00000000       0.00036208       0.00045947       0.00064732      -0.00000000       0.00020940       0.00000000       0.00036208       0.00045947      -0.00064732      -0.00000000      -0.00045482       0.00000000      -0.00064732       0.00045947      -0.00036208      -0.00064732       0.00138594      -0.00064732       0.00000000       0.00015674       0.00014073       0.00000000      -0.00014153       0.00000000      -0.01264527       0.01187306      -0.00000000      -0.00000000       0.00193659       0.00000000      -0.00014073       0.00015674       0.00000000       0.00000000      -0.00045482       0.00000000       0.00000000       0.00024565      -0.00023551      -0.00036208       0.00045947       0.00064732      -0.00000000       0.00027766       0.00000000      -0.00036208       0.00045947       0.00064732      -0.00064732       0.00138594       0.00064732      -0.00064732       0.00045947       0.00036208       0.00000000      -0.00014153      -0.00000000       0.00000000       0.00015674      -0.00014073       0.00023551       0.00024565       0.00000000       0.00014073       0.00015674      -0.00000000       0.00000000      -0.00025127      -0.00000000       0.00014073       0.00015674       0.00000000      -0.00064732       0.00138594       0.00064732      -0.00000000       0.00015674      -0.00014073      -0.00000000      -0.00014153       0.00000000      -0.00064732       0.00045947       0.00036208       0.00000000       0.01187306       0.01264527       0.00000000       0.00066625       0.00000000       0.00064732       0.00045947      -0.00036208       0.00064732       0.00138594       0.00064732      -0.01264527       0.01187306       0.00000000       0.00000000      -0.00045482       0.00000000      -0.00014073       0.00015674      -0.00000000       0.00000000       0.00193659       0.00000000      -0.00064732       0.00045947      -0.00036208      -0.00000000      -0.00014153      -0.00000000      -0.00000000       0.00015674       0.00014073      -0.00064732       0.00138594      -0.00064732       0.00036208       0.00045947       0.00064732      -0.00000000      -0.00045482      -0.00000000       0.00036208       0.00045947      -0.00064732      -0.00000000       0.00020940       0.00000000 </v>
[...]
       <r>    21.3870     0.0000   648.0000 </r>
       <r>    21.6691     0.0000   648.0000 </r>
       <r>    21.9512     0.0000   648.0000 </r>
       <r>    22.2332     0.0000   648.0000 </r>
       <r>    22.5153     0.0000   648.0000 </r>
       <r>    22.7974     0.0000   648.0000 </r>
       <r>    23.0794     0.0000   648.0000 </r>
       <r>    23.3615     0.0000   648.0000 </r>
       <r>    23.6436     0.0000   648.0000 </r>
      </set>
      <set comment="spin 2">
       <r>   -60.9754     0.0000     0.0000 </r>
       <r>   -60.6933     0.0000     0.0000 </r>
       <r>   -60.4113     0.0000     0.0000 </r>
       <r>   -60.1292     0.0000     0.0000 </r>
       <r>   -59.8471     0.0000     0.0000 </r>
       <r>   -59.5651     0.0000     0.0000 </r>
       <r>   -59.2830     0.0000     0.0000 </r>
       <r>   -59.0009     0.0000     0.0000 </r>
       <r>   -58.7189     0.0000     0.0000 </r>
       <r>   -58.4368     0.0000     0.0000 </r>
       <r>   -58.1548    -0.0000    -0.0000 </r>
       <r>   -57.8727    -0.0000    -0.0000 </r>
       <r>   -57.5906    -0.0000    -0.0000 </r>
       <r>   -57.3086    -0.0000    -0.0000 </r>
       <r>   -57.0265    -0.0001    -0.0000 </r>
       <r>   -56.7444    -0.5042    -0.1423 </r>
       <r>   -56.4624   -18.9004    -5.4734 </r>
       <r>   -56.1803   425.1482   114.4453 </r>
       <r>   -55.8983   292.3212   196.8983 </r>
       <r>   -55.6162   -17.2254   192.0396 </r>
       <r>   -55.3341    -0.1405   192.0000 </r>
       <r>   -55.0521    -0.0000   192.0000 </r>
       <r>   -54.7700    -0.0000   192.0000 </r>
       <r>   -54.4879     0.0000   192.0000 </r>
       <r>   -54.2059     0.0000   192.0000 </r>
       <r>   -53.9238     0.0000   192.0000 </r>
       <r>   -53.6417     0.0000   192.0000 </r>
       <r>   -53.3597     0.0000   192.0000 </r>
       <r>   -53.0776     0.0000   192.0000 </r>
       <r>   -52.7956     0.0000   192.0000 </r>
       <r>   -52.5135     0.0000   192.0000 </r>
       <r>   -52.2314     0.0000   192.0000 </r>
       <r>   -51.9494     0.0000   192.0000 </r>
       <r>   -51.6673     0.0000   192.0000 </r>
       <r>   -51.3852     0.0000   192.0000 </r>
       <r>   -51.1032     0.0000   192.0000 </r>
       <r>   -50.8211     0.0000   192.0000 </r>
       <r>   -50.5391     0.0000   192.0000 </r>
       <r>   -50.2570     0.0000   192.0000 </r>
       <r>   -49.9749     0.0000   192.0000 </r>
       <r>   -49.6929     0.0000   192.0000 </r>
       <r>   -49.4108     0.0000   192.0000 </r>
       <r>   -49.1287     0.0000   192.0000 </r>
       <r>   -48.8467     0.0000   192.0000 </r>
       <r>   -48.5646     0.0000   192.0000 </r>
       <r>   -48.2825     0.0000   192.0000 </r>
       <r>   -48.0005     0.0000   192.0000 </r>
       <r>   -47.7184     0.0000   192.0000 </r>
       <r>   -47.4364     0.0000   192.0000 </r>
       <r>   -47.1543     0.0000   192.0000 </r>
       <r>   -46.8722     0.0000   192.0000 </r>
       <r>   -46.5902     0.0000   192.0000 </r>
       <r>   -46.3081     0.0000   192.0000 </r>
       <r>   -46.0260     0.0000   192.0000 </r>
       <r>   -45.7440     0.0000   192.0000 </r>
       <r>   -45.4619     0.0000   192.0000 </r>
       <r>   -45.1799     0.0000   192.0000 </r>
       <r>   -44.8978     0.0000   192.0000 </r>
       <r>   -44.6157     0.0000   192.0000 </r>
       <r>   -44.3337     0.0000   192.0000 </r>
       <r>   -44.0516     0.0000   192.0000 </r>
       <r>   -43.7695     0.0000   192.0000 </r>
       <r>   -43.4875     0.0000   192.0000 </r>
       <r>   -43.2054     0.0000   192.0000 </r>
       <r>   -42.9233     0.0000   192.0000 </r>
       <r>   -42.6413     0.0000   192.0000 </r>
       <r>   -42.3592     0.0000   192.0000 </r>
       <r>   -42.0772     0.0000   192.0000 </r>
       <r>   -41.7951     0.0000   192.0000 </r>
       <r>   -41.5130     0.0000   192.0000 </r>
       <r>   -41.2310     0.0000   192.0000 </r>
       <r>   -40.9489     0.0000   192.0000 </r>
       <r>   -40.6668     0.0000   192.0000 </r>
       <r>   -40.3848     0.0000   192.0000 </r>
       <r>   -40.1027     0.0000   192.0000 </r>
       <r>   -39.8207     0.0000   192.0000 </r>
       <r>   -39.5386     0.0000   192.0000 </r>
       <r>   -39.2565     0.0000   192.0000 </r>
       <r>   -38.9745     0.0000   192.0000 </r>
       <r>   -38.6924     0.0000   192.0000 </r>
       <r>   -38.4103     0.0000   192.0000 </r>
       <r>   -38.1283     0.0000   192.0000 </r>
       <r>   -37.8462     0.0000   192.0000 </r>
       <r>   -37.5641     0.0000   192.0000 </r>
       <r>   -37.2821     0.0000   192.0000 </r>
       <r>   -37.0000     0.0000   192.0000 </r>
       <r>   -36.7180     0.0000   192.0000 </r>
       <r>   -36.4359     0.0000   192.0000 </r>
       <r>   -36.1538     0.0000   192.0000 </r>
       <r>   -35.8718     0.0000   192.0000 </r>
       <r>   -35.5897     0.0000   192.0000 </r>
       <r>   -35.3076     0.0000   192.0000 </r>
       <r>   -35.0256     0.0000   192.0000 </r>
       <r>   -34.7435     0.0000   192.0000 </r>
       <r>   -34.4615     0.0000   192.0000 </r>
       <r>   -34.1794     0.0000   192.0000 </r>
       <r>   -33.8973     0.0000   192.0000 </r>
       <r>   -33.6153     0.0000   192.0000 </r>
       <r>   -33.3332     0.0000   192.0000 </r>
       <r>   -33.0511     0.0000   192.0000 </r>
       <r>   -32.7691     0.0000   192.0000 </r>
       <r>   -32.4870     0.0000   192.0000 </r>
       <r>   -32.2049     0.0000   192.0000 </r>
       <r>   -31.9229     0.0000   192.0000 </r>
       <r>   -31.6408     0.0000   192.0000 </r>
       <r>   -31.3588     0.0000   192.0000 </r>
       <r>   -31.0767     0.0000   192.0000 </r>
       <r>   -30.7946     0.0000   192.0000 </r>
       <r>   -30.5126     0.0000   192.0000 </r>
       <r>   -30.2305     0.0000   192.0000 </r>
       <r>   -29.9484     0.0000   192.0000 </r>
       <r>   -29.6664     0.0000   192.0000 </r>
       <r>   -29.3843     0.0000   192.0000 </r>
       <r>   -29.1023     0.0000   192.0000 </r>
       <r>   -28.8202     0.0000   192.0000 </r>
       <r>   -28.5381     0.0000   192.0000 </r>
       <r>   -28.2561     0.0000   192.0000 </r>
       <r>   -27.9740     0.0000   192.0000 </r>
       <r>   -27.6919     0.0000   192.0000 </r>
       <r>   -27.4099     0.0000   192.0000 </r>
       <r>   -27.1278     0.0000   192.0000 </r>
       <r>   -26.8457     0.0000   192.0000 </r>
       <r>   -26.5637     0.0000   192.0000 </r>
       <r>   -26.2816     0.0000   192.0000 </r>
       <r>   -25.9996     0.0000   192.0000 </r>
       <r>   -25.7175     0.0000   192.0000 </r>
       <r>   -25.4354     0.0000   192.0000 </r>
       <r>   -25.1534     0.0000   192.0000 </r>
       <r>   -24.8713     0.0000   192.0000 </r>
       <r>   -24.5892     0.0000   192.0000 </r>
       <r>   -24.3072     0.0000   192.0000 </r>
       <r>   -24.0251     0.0000   192.0000 </r>
       <r>   -23.7431     0.0000   192.0000 </r>
       <r>   -23.4610     0.0000   192.0000 </r>
       <r>   -23.1789     0.0000   192.0000 </r>
       <r>   -22.8969     0.0000   192.0000 </r>
       <r>   -22.6148     0.0000   192.0000 </r>
       <r>   -22.3327     0.0000   192.0000 </r>
       <r>   -22.0507     0.0000   192.0000 </r>
       <r>   -21.7686     0.0000   192.0000 </r>
       <r>   -21.4865     0.0000   192.0000 </r>
       <r>   -21.2045     0.0000   192.0000 </r>
       <r>   -20.9224     0.0000   192.0000 </r>
       <r>   -20.6404     0.0000   192.0000 </r>
       <r>   -20.3583     0.0000   192.0000 </r>
       <r>   -20.0762     0.0000   192.0000 </r>
       <r>   -19.7942     0.0000   192.0000 </r>
       <r>   -19.5121     0.0000   192.0000 </r>
       <r>   -19.2300     0.0000   192.0000 </r>
       <r>   -18.9480     0.0000   192.0000 </r>
       <r>   -18.6659     0.0000   192.0000 </r>
       <r>   -18.3839     0.0000   192.0000 </r>
       <r>   -18.1018     0.0000   192.0000 </r>
       <r>   -17.8197     0.0000   192.0000 </r>
       <r>   -17.5377     0.0000   192.0000 </r>
       <r>   -17.2556     0.0000   192.0000 </r>
       <r>   -16.9735     0.0000   192.0000 </r>
       <r>   -16.6915     0.0000   192.0000 </r>
       <r>   -16.4094     0.0000   192.0000 </r>
       <r>   -16.1273     0.0000   192.0000 </r>
       <r>   -15.8453     0.0000   192.0000 </r>
       <r>   -15.5632     0.0000   192.0000 </r>
       <r>   -15.2812     0.0000   192.0000 </r>
       <r>   -14.9991     0.0000   192.0000 </r>
       <r>   -14.7170     0.0000   192.0000 </r>
       <r>   -14.4350     0.0000   192.0000 </r>
       <r>   -14.1529     0.0000   192.0000 </r>
       <r>   -13.8708     0.0000   192.0000 </r>
       <r>   -13.5888     0.0000   192.0000 </r>
       <r>   -13.3067     0.0000   192.0000 </r>
       <r>   -13.0247     0.0000   192.0000 </r>
       <r>   -12.7426     0.0000   192.0000 </r>
       <r>   -12.4605     0.0000   192.0000 </r>
       <r>   -12.1785     0.0000   192.0000 </r>
       <r>   -11.8964     0.0000   192.0000 </r>
       <r>   -11.6143     0.0000   192.0000 </r>
       <r>   -11.3323     0.0000   192.0000 </r>
       <r>   -11.0502     0.0000   192.0000 </r>
       <r>   -10.7682     0.0000   192.0000 </r>
       <r>   -10.4861     0.0000   192.0000 </r>
       <r>   -10.2040     0.0000   192.0000 </r>
       <r>    -9.9220     0.0000   192.0000 </r>
       <r>    -9.6399     0.0000   192.0000 </r>
       <r>    -9.3578     0.0000   192.0000 </r>
       <r>    -9.0758     0.0000   192.0000 </r>
       <r>    -8.7937     0.0000   192.0000 </r>
       <r>    -8.5116     0.0000   192.0000 </r>
       <r>    -8.2296     0.0000   192.0000 </r>
       <r>    -7.9475     0.0000   192.0000 </r>
       <r>    -7.6655     0.0000   192.0000 </r>
       <r>    -7.3834     0.0000   192.0000 </r>
       <r>    -7.1013     0.0000   192.0000 </r>
       <r>    -6.8193     0.0000   192.0000 </r>
       <r>    -6.5372     0.0000   192.0000 </r>
       <r>    -6.2551     0.0000   192.0000 </r>
       <r>    -5.9731     0.0000   192.0000 </r>
       <r>    -5.6910     0.0000   192.0000 </r>
       <r>    -5.4090     0.0000   192.0000 </r>
       <r>    -5.1269     0.0000   192.0000 </r>
       <r>    -4.8448     0.0000   192.0000 </r>
       <r>    -4.5628     0.0000   192.0000 </r>
       <r>    -4.2807     0.0000   192.0000 </r>
       <r>    -3.9986     0.0000   192.0000 </r>
       <r>    -3.7166     0.0000   192.0000 </r>
       <r>    -3.4345    -0.0000   192.0000 </r>
       <r>    -3.1524    -0.0000   192.0000 </r>
       <r>    -2.8704    -0.0000   192.0000 </r>
       <r>    -2.5883    -0.0000   192.0000 </r>
       <r>    -2.3063    -0.0000   192.0000 </r>
       <r>    -2.0242    -0.0040   191.9989 </r>
       <r>    -1.7421     0.0213   192.0049 </r>
       <r>    -1.4601     0.7491   192.2162 </r>
       <r>    -1.1780     1.4812   192.6340 </r>
       <r>    -0.8959     2.0827   193.2214 </r>
       <r>    -0.6139     2.5706   193.9465 </r>
       <r>    -0.3318     2.6122   194.6833 </r>
       <r>    -0.0498     3.6850   195.7227 </r>
       <r>     0.2323     3.2361   196.6355 </r>
       <r>     0.5144     4.2555   197.8358 </r>
       <r>     0.7964     4.8486   199.2034 </r>
       <r>     1.0785     4.3780   200.4382 </r>
       <r>     1.3606     6.4521   202.2581 </r>
       <r>     1.6426     5.3693   203.7726 </r>
       <r>     1.9247     8.0143   206.0331 </r>
       <r>     2.2068     8.4532   208.4175 </r>
       <r>     2.4888     9.7187   211.1587 </r>
       <r>     2.7709    15.6342   215.5686 </r>
       <r>     3.0529    24.5994   222.5072 </r>
       <r>     3.3350    33.4821   231.9512 </r>
       <r>     3.6171    35.1142   241.8556 </r>
       <r>     3.8991    53.5778   256.9680 </r>
       <r>     4.1812    61.3180   274.2635 </r>
       <r>     4.4633    57.3753   290.4470 </r>
       <r>     4.7453    67.0936   309.3716 </r>
       <r>     5.0274    86.4855   333.7660 </r>
       <r>     5.3094    99.1825   361.7417 </r>
       <r>     5.5915   103.1540   390.8376 </r>
       <r>     5.8736    75.3572   412.0931 </r>
       <r>     6.1556    91.5593   437.9186 </r>
       <r>     6.4377    87.0338   462.4676 </r>
       <r>     6.7198    90.9488   488.1210 </r>
       <r>     7.0018   121.0879   522.2754 </r>
       <r>     7.2839    37.4189   532.8299 </r>
       <r>     7.5660    10.3322   535.7442 </r>
       <r>     7.8480    13.4192   539.5293 </r>
       <r>     8.1301    11.8411   542.8692 </r>
       <r>     8.4121    10.5987   545.8587 </r>
       <r>     8.6942     8.9384   548.3799 </r>
       <r>     8.9763    12.4109   551.8806 </r>
       <r>     9.2583     9.0697   554.4388 </r>
       <r>     9.5404     7.0881   556.4381 </r>
       <r>     9.8225    10.2120   559.3185 </r>
       <r>    10.1045     9.7407   562.0660 </r>
       <r>    10.3866     5.4845   563.6130 </r>
       <r>    10.6686     6.3415   565.4017 </r>
       <r>    10.9507     8.3919   567.7687 </r>
       <r>    11.2328     5.9765   569.4545 </r>
       <r>    11.5148     4.2966   570.6664 </r>
       <r>    11.7969     4.3373   571.8898 </r>
       <r>    12.0790     4.9294   573.2802 </r>
       <r>    12.3610     7.2747   575.3321 </r>
       <r>    12.6431     9.4645   578.0017 </r>
       <r>    12.9252    10.5563   580.9793 </r>
       <r>    13.2072    11.6112   584.2544 </r>
       <r>    13.4893     9.1387   586.8320 </r>
       <r>    13.7713     8.4761   589.2228 </r>
       <r>    14.0534     7.9386   591.4620 </r>
       <r>    14.3355    10.1486   594.3246 </r>
       <r>    14.6175     8.1174   596.6142 </r>
       <r>    14.8996     7.0000   598.5886 </r>
       <r>    15.1817     5.6911   600.1939 </r>
       <r>    15.4637     8.7394   602.6590 </r>
       <r>    15.7458    11.9960   606.0426 </r>
       <r>    16.0278     9.1207   608.6152 </r>
       <r>    16.3099    13.2050   612.3399 </r>
       <r>    16.5920    10.8077   615.3883 </r>
       <r>    16.8740    10.4389   618.3327 </r>
       <r>    17.1561    12.0420   621.7293 </r>
       <r>    17.4382    13.6195   625.5709 </r>
       <r>    17.7202    14.1676   629.5671 </r>
       <r>    18.0023     9.6014   632.2753 </r>
       <r>    18.2844    12.0529   635.6750 </r>
       <r>    18.5664    11.4575   638.9067 </r>
       <r>    18.8485    14.9058   643.1111 </r>
       <r>    19.1305     8.8146   645.5974 </r>
       <r>    19.4126     7.9246   647.8326 </r>
       <r>    19.6947     0.1828   647.8842 </r>
       <r>    19.9767     0.4167   648.0017 </r>
       <r>    20.2588    -0.0047   648.0004 </r>
       <r>    20.5409    -0.0013   648.0000 </r>
       <r>    20.8229    -0.0000   648.0000 </r>
       <r>    21.1050    -0.0000   648.0000 </r>
       <r>    21.3870     0.0000   648.0000 </r>
       <r>    21.6691     0.0000   648.0000 </r>
       <r>    21.9512     0.0000   648.0000 </r>
       <r>    22.2332     0.0000   648.0000 </r>
       <r>    22.5153     0.0000   648.0000 </r>
       <r>    22.7974     0.0000   648.0000 </r>
       <r>    23.0794     0.0000   648.0000 </r>
       <r>    23.3615     0.0000   648.0000 </r>
       <r>    23.6436     0.0000   648.0000 </r>
      </set>
     </set>
    </array>
   </total>
  </dos>
 </calculation>
 <structure name="finalpos" >
  <crystal>
   <varray name="basis" >
    <v>       0.00000000       7.26150000       7.26150000 </v>
    <v>       7.26150000       0.00000000       7.26150000 </v>
    <v>       7.26150000       7.26150000       0.00000000 </v>
   </varray>
   <i name="volume">    765.78881842 </i>
   <varray name="rec_basis" >
    <v>      -0.06885630       0.06885630       0.06885630 </v>
    <v>       0.06885630      -0.06885630       0.06885630 </v>
    <v>       0.06885630       0.06885630      -0.06885630 </v>
   </varray>
  </crystal>
  <varray name="positions" >
   <v>       0.00103284      -0.00103284      -0.00103284 </v>
   <v>       0.00000000       0.00000000       0.25000000 </v>
   <v>       0.00000000       0.00000000       0.50000000 </v>
   <v>       0.00000000       0.00000000       0.75000000 </v>
   <v>       0.00000000       0.25000000       0.00000000 </v>
   <v>       0.00000000       0.25000000       0.25000000 </v>
   <v>       0.00000000       0.25000000       0.50000000 </v>
   <v>       0.00000000       0.25000000       0.75000000 </v>
   <v>       0.00000000       0.50000000       0.00000000 </v>
   <v>       0.00000000       0.50000000       0.25000000 </v>
   <v>       0.00000000       0.50000000       0.50000000 </v>
   <v>       0.00000000       0.50000000       0.75000000 </v>
   <v>       0.00000000       0.75000000       0.00000000 </v>
   <v>       0.00000000       0.75000000       0.25000000 </v>
   <v>       0.00000000       0.75000000       0.50000000 </v>
   <v>       0.00000000       0.75000000       0.75000000 </v>
   <v>       0.25000000       0.00000000       0.00000000 </v>
   <v>       0.25000000       0.00000000       0.25000000 </v>
   <v>       0.25000000       0.00000000       0.50000000 </v>
   <v>       0.25000000       0.00000000       0.75000000 </v>
   <v>       0.25000000       0.25000000       0.00000000 </v>
   <v>       0.25000000       0.25000000       0.25000000 </v>
   <v>       0.25000000       0.25000000       0.50000000 </v>
   <v>       0.25000000       0.25000000       0.75000000 </v>
   <v>       0.25000000       0.50000000       0.00000000 </v>
   <v>       0.25000000       0.50000000       0.25000000 </v>
   <v>       0.25000000       0.50000000       0.50000000 </v>
   <v>       0.25000000       0.50000000       0.75000000 </v>
   <v>       0.25000000       0.75000000       0.00000000 </v>
   <v>       0.25000000       0.75000000       0.25000000 </v>
   <v>       0.25000000       0.75000000       0.50000000 </v>
   <v>       0.25000000       0.75000000       0.75000000 </v>
   <v>       0.50000000       0.00000000       0.00000000 </v>
   <v>       0.50000000       0.00000000       0.25000000 </v>
   <v>       0.50000000       0.00000000       0.50000000 </v>
   <v>       0.50000000       0.00000000       0.75000000 </v>
   <v>       0.50000000       0.25000000       0.00000000 </v>
   <v>       0.50000000       0.25000000       0.25000000 </v>
   <v>       0.50000000       0.25000000       0.50000000 </v>
   <v>       0.50000000       0.25000000       0.75000000 </v>
   <v>       0.50000000       0.50000000       0.00000000 </v>
   <v>       0.50000000       0.50000000       0.25000000 </v>
   <v>       0.50000000       0.50000000       0.50000000 </v>
   <v>       0.50000000       0.50000000       0.75000000 </v>
   <v>       0.50000000       0.75000000       0.00000000 </v>
   <v>       0.50000000       0.75000000       0.25000000 </v>
   <v>       0.50000000       0.75000000       0.50000000 </v>
   <v>       0.50000000       0.75000000       0.75000000 </v>
   <v>       0.75000000       0.00000000       0.00000000 </v>
   <v>       0.75000000       0.00000000       0.25000000 </v>
   <v>       0.75000000       0.00000000       0.50000000 </v>
   <v>       0.75000000       0.00000000       0.75000000 </v>
   <v>       0.75000000       0.25000000       0.00000000 </v>
   <v>       0.75000000       0.25000000       0.25000000 </v>
   <v>       0.75000000       0.25000000       0.50000000 </v>
   <v>       0.75000000       0.25000000       0.75000000 </v>
   <v>       0.75000000       0.50000000       0.00000000 </v>
   <v>       0.75000000       0.50000000       0.25000000 </v>
   <v>       0.75000000       0.50000000       0.50000000 </v>
   <v>       0.75000000       0.50000000       0.75000000 </v>
   <v>       0.75000000       0.75000000       0.00000000 </v>
   <v>       0.75000000       0.75000000       0.25000000 </v>
   <v>       0.75000000       0.75000000       0.50000000 </v>
   <v>       0.75000000       0.75000000       0.75000000 </v>
  </varray>
 </structure>
</modeling>
