       N       E                     dE             d eps       ncg     rms          rms(c)
DAV:   1     0.156020449134E+05    0.15602E+05   -0.60794E+05 11720   0.217E+03
DAV:   2     0.104833265879E+04   -0.14554E+05   -0.14148E+05 10368   0.703E+02
DAV:   3    -0.347009846182E+03   -0.13953E+04   -0.11648E+04 10528   0.235E+02
DAV:   4    -0.428323029411E+03   -0.81313E+02   -0.78738E+02 11120   0.574E+01
DAV:   5    -0.429707638018E+03   -0.13846E+01   -0.13827E+01 11056   0.738E+00    0.678E+01
DAV:   6    -0.402347847372E+03    0.27360E+02   -0.64748E+02 10896   0.757E+01    0.547E+01
DAV:   7    -0.367226771900E+03    0.35121E+02   -0.13899E+02 10824   0.353E+01    0.615E+00
DAV:   8    -0.367337853721E+03   -0.11108E+00   -0.14617E+00 11056   0.259E+00    0.319E+00
DAV:   9    -0.367191638327E+03    0.14622E+00   -0.28571E-01 11376   0.986E-01    0.797E-01
DAV:  10    -0.367198288992E+03   -0.66507E-02   -0.15724E-02 11800   0.243E-01    0.355E-01
DAV:  11    -0.367202706118E+03   -0.44171E-02   -0.85084E-03 11000   0.206E-01    0.120E-01
DAV:  12    -0.367202731439E+03   -0.25321E-04   -0.87671E-04 10984   0.692E-02    0.235E-02
DAV:  13    -0.367202737036E+03   -0.55967E-05   -0.45744E-05 11216   0.153E-02    0.207E-02
DAV:  14    -0.367202716431E+03    0.20605E-04   -0.85083E-06  8880   0.793E-03    0.757E-03
DAV:  15    -0.367202709640E+03    0.67913E-05   -0.18841E-06  6016   0.405E-03    0.564E-04
DAV:  16    -0.367202709886E+03   -0.24590E-06   -0.20657E-07  5448   0.109E-03
   1 F= -.36720271E+03 E0= -.36719391E+03  d E =-.263876E-01  mag=    45.4201
 Found     1 degrees of freedom:
       N       E                     dE             d eps       ncg     rms          rms(c)
DAV:   1    -0.367106105201E+03    0.96604E-01   -0.22756E+00 20656   0.156E+01    0.563E-01
DAV:   2    -0.367201805939E+03   -0.95701E-01   -0.94329E-01 16096   0.157E+00    0.109E+00
DAV:   3    -0.367205791027E+03   -0.39851E-02   -0.40263E-02 19912   0.976E-01    0.132E+00
DAV:   4    -0.367203651329E+03    0.21397E-02   -0.74361E-03 18272   0.613E-01    0.812E-01
DAV:   5    -0.367202162799E+03    0.14885E-02   -0.13294E-03 17288   0.345E-01    0.189E-01
DAV:   6    -0.367202152015E+03    0.10784E-04   -0.32415E-04 20552   0.858E-02    0.170E-01
DAV:   7    -0.367202093887E+03    0.58128E-04   -0.65237E-05 17432   0.594E-02    0.144E-01
DAV:   8    -0.367202075321E+03    0.18566E-04   -0.54244E-05 17512   0.677E-02    0.150E-01
DAV:   9    -0.367202051326E+03    0.23995E-04   -0.12574E-04 17688   0.112E-01    0.191E-01
DAV:  10    -0.367201945827E+03    0.10550E-03   -0.11571E-04 20832   0.942E-02    0.402E-02
DAV:  11    -0.367201951299E+03   -0.54722E-05   -0.35842E-05 22736   0.361E-02    0.568E-02
DAV:  12    -0.367201946109E+03    0.51909E-05   -0.14366E-05 17312   0.302E-02    0.340E-02
DAV:  13    -0.367201943950E+03    0.21588E-05   -0.48699E-06 15424   0.166E-02    0.104E-02
DAV:  14    -0.367201944326E+03   -0.37602E-06   -0.10872E-06  8472   0.811E-03
   2 F= -.36720194E+03 E0= -.36719315E+03  d E =-.263831E-01  mag=    45.4201
       N       E                     dE             d eps       ncg     rms          rms(c)
DAV:   1    -0.366852577269E+03    0.34937E+00   -0.80414E+00 20680   0.276E+01    0.109E+00
DAV:   2    -0.367216961855E+03   -0.36438E+00   -0.34309E+00 16088   0.287E+00    0.329E+00
DAV:   3    -0.367207660309E+03    0.93015E-02   -0.17981E-01 19448   0.172E+00    0.159E+00
DAV:   4    -0.367214380577E+03   -0.67203E-02   -0.25698E-02 19272   0.126E+00    0.224E+00
DAV:   5    -0.367202848384E+03    0.11532E-01   -0.90013E-03 16872   0.916E-01    0.459E-01
DAV:   6    -0.367202628318E+03    0.22007E-03   -0.14849E-03 20008   0.214E-01    0.306E-01
DAV:   7    -0.367202489841E+03    0.13848E-03   -0.36498E-04 17672   0.130E-01    0.294E-01
DAV:   8    -0.367202321600E+03    0.16824E-03   -0.23634E-04 17488   0.133E-01    0.250E-01
DAV:   9    -0.367202420747E+03   -0.99147E-04   -0.40253E-04 17224   0.194E-01    0.386E-01
DAV:  10    -0.367202000354E+03    0.42039E-03   -0.49358E-04 20624   0.200E-01    0.173E-01
DAV:  11    -0.367201949678E+03    0.50676E-04   -0.17694E-04 20736   0.834E-02    0.668E-02
DAV:  12    -0.367201964606E+03   -0.14928E-04   -0.54911E-05 21416   0.587E-02    0.919E-02
DAV:  13    -0.367201943931E+03    0.20674E-04   -0.32852E-05 17448   0.501E-02    0.221E-02
DAV:  14    -0.367201950154E+03   -0.62230E-05   -0.10028E-05 18920   0.263E-02    0.530E-02
DAV:  15    -0.367201944225E+03    0.59291E-05   -0.62475E-06 15120   0.239E-02    0.122E-02
DAV:  16    -0.367201944394E+03   -0.16892E-06   -0.13499E-06  8400   0.952E-03
   3 F= -.36720194E+03 E0= -.36719315E+03  d E =-.263821E-01  mag=    45.4201
