<?xml version="1.0" encoding="ISO-8859-1"?>
<modeling>
 <generator>
  <i name="program" type="string">vasp </i>
  <i name="version" type="string">5.4.1  </i>
  <i name="subversion" type="string">05Feb16 (build Oct 12 2016 17:31:35) complex                          parallel </i>
  <i name="platform" type="string">IFC91_ompi </i>
  <i name="date" type="string">2020 09 07 </i>
  <i name="time" type="string">23:18:46 </i>
 </generator>
 <incar>
  <i type="string" name="SYSTEM"> phonon of Zr bcc - omiga</i>
  <i type="string" name="PREC">h</i>
  <i type="int" name="ISPIN">     2</i>
  <i type="int" name="IBRION">     6</i>
  <i name="EDIFF">      0.00000100</i>
  <i type="int" name="NSW">     1</i>
  <v name="MAGMOM">      1.00000000      1.00000000      1.00000000      1.00000000      1.00000000      1.00000000      1.00000000      1.00000000      1.00000000      1.00000000      1.00000000      1.00000000      1.00000000      1.00000000      1.00000000      1.00000000      1.00000000      1.00000000      1.00000000      1.00000000
      1.00000000      1.00000000      1.00000000      1.00000000      1.00000000      1.00000000      1.00000000      1.00000000      1.00000000      1.00000000      1.00000000      1.00000000      1.00000000      1.00000000      1.00000000      1.00000000      1.00000000      1.00000000      1.00000000      1.00000000
      1.00000000      1.00000000      1.00000000      1.00000000      1.00000000      1.00000000      1.00000000      1.00000000      1.00000000      1.00000000      1.00000000      1.00000000      1.00000000      1.00000000      1.00000000      1.00000000      1.00000000      1.00000000      1.00000000      1.00000000
      1.00000000      1.00000000      1.00000000      1.00000000</v>
  <i type="string" name="LREAL">Auto</i>
  <i type="int" name="ISMEAR">     1</i>
  <i type="int" name="NWRITE">     0</i>
  <v type="int" name="KPOINT_BSE">    -1     0     0     0</v>
 </incar>
 <kpoints>
  <generation param="Gamma">
   <v type="int" name="divisions">       3        3        3 </v>
   <v name="usershift">      0.00000000       0.00000000       0.00000000 </v>
   <v name="genvec1">      0.33333333       0.00000000       0.00000000 </v>
   <v name="genvec2">      0.00000000       0.33333333       0.00000000 </v>
   <v name="genvec3">      0.00000000       0.00000000       0.33333333 </v>
   <v name="shift">      0.00000000       0.00000000       0.00000000 </v>
  </generation>
  <varray name="kpointlist" >
   <v>       0.00000000       0.00000000       0.00000000 </v>
   <v>       0.33333333       0.00000000       0.00000000 </v>
   <v>       0.33333333       0.33333333       0.00000000 </v>
   <v>      -0.33333333       0.33333333       0.00000000 </v>
  </varray>
  <varray name="weights" >
   <v>       0.03703704 </v>
   <v>       0.29629630 </v>
   <v>       0.22222222 </v>
   <v>       0.44444444 </v>
  </varray>
 </kpoints>
 <parameters>
  <separator name="general" >
   <i type="string" name="SYSTEM">phonon of Zr bcc - omiga</i>
   <i type="logical" name="LCOMPAT"> F  </i>
  </separator>
  <separator name="electronic" >
   <i type="string" name="PREC">h</i>
   <i name="ENMAX">    459.93125000</i>
   <i name="ENAUG">    703.44300000</i>
   <i name="EDIFF">      0.00000100</i>
   <i type="int" name="IALGO">    38</i>
   <i type="int" name="IWAVPR">    11</i>
   <i type="int" name="NBANDS">   648</i>
   <i name="NELECT">   1024.00000000</i>
   <i type="int" name="TURBO">     0</i>
   <i type="int" name="IRESTART">     0</i>
   <i type="int" name="NREBOOT">     0</i>
   <i type="int" name="NMIN">     0</i>
   <i name="EREF">      0.00000000</i>
   <separator name="electronic smearing" >
    <i type="int" name="ISMEAR">     1</i>
    <i name="SIGMA">      0.20000000</i>
    <i name="KSPACING">      0.50000000</i>
    <i type="logical" name="KGAMMA"> T  </i>
   </separator>
   <separator name="electronic projectors" >
    <i type="logical" name="LREAL"> T  </i>
    <v name="ROPT">     -0.00040000</v>
    <i type="int" name="LMAXPAW">  -100</i>
    <i type="int" name="LMAXMIX">     2</i>
    <i type="logical" name="NLSPLINE"> F  </i>
   </separator>
   <separator name="electronic startup" >
    <i type="int" name="ISTART">     0</i>
    <i type="int" name="ICHARG">     2</i>
    <i type="int" name="INIWAV">     1</i>
   </separator>
   <separator name="electronic spin" >
    <i type="int" name="ISPIN">     2</i>
    <i type="logical" name="LNONCOLLINEAR"> F  </i>
    <v name="MAGMOM">      1.00000000      1.00000000      1.00000000      1.00000000      1.00000000      1.00000000      1.00000000      1.00000000      1.00000000      1.00000000      1.00000000      1.00000000      1.00000000      1.00000000      1.00000000      1.00000000      1.00000000      1.00000000      1.00000000      1.00000000
      1.00000000      1.00000000      1.00000000      1.00000000      1.00000000      1.00000000      1.00000000      1.00000000      1.00000000      1.00000000      1.00000000      1.00000000      1.00000000      1.00000000      1.00000000      1.00000000      1.00000000      1.00000000      1.00000000      1.00000000
      1.00000000      1.00000000      1.00000000      1.00000000      1.00000000      1.00000000      1.00000000      1.00000000      1.00000000      1.00000000      1.00000000      1.00000000      1.00000000      1.00000000      1.00000000      1.00000000      1.00000000      1.00000000      1.00000000      1.00000000
      1.00000000      1.00000000      1.00000000      1.00000000</v>
    <i name="NUPDOWN">     -1.00000000</i>
    <i type="logical" name="LSORBIT"> F  </i>
    <v name="SAXIS">      0.00000000      0.00000000      1.00000000</v>
    <i type="logical" name="LSPIRAL"> F  </i>
    <v name="QSPIRAL">      0.00000000      0.00000000      0.00000000</v>
    <i type="logical" name="LZEROZ"> F  </i>
   </separator>
   <separator name="electronic exchange-correlation" >
    <i type="logical" name="LASPH"> F  </i>
    <i type="logical" name="LMETAGGA"> F  </i>
   </separator>
   <separator name="electronic convergence" >
    <i type="int" name="NELM">    60</i>
    <i type="int" name="NELMDL">     0</i>
    <i type="int" name="NELMIN">     2</i>
    <i name="ENINI">    459.93125000</i>
    <separator name="electronic convergence detail" >
     <i type="logical" name="LDIAG"> T  </i>
     <i type="logical" name="LSUBROT"> F  </i>
     <i name="WEIMIN">      0.00100000</i>
     <i name="EBREAK">      0.00000000</i>
     <i name="DEPER">      0.30000000</i>
     <i type="int" name="NRMM">     4</i>
     <i name="TIME">      0.40000000</i>
    </separator>
   </separator>
   <separator name="electronic mixer" >
    <i name="AMIX">      0.40000000</i>
    <i name="BMIX">      1.00000000</i>
    <i name="AMIN">      0.10000000</i>
    <i name="AMIX_MAG">      1.60000000</i>
    <i name="BMIX_MAG">      1.00000000</i>
    <separator name="electronic mixer details" >
     <i type="int" name="IMIX">     4</i>
     <i type="logical" name="MIXFIRST"> F  </i>
     <i type="int" name="MAXMIX">   -45</i>
     <i name="WC">    100.00000000</i>
     <i type="int" name="INIMIX">     1</i>
     <i type="int" name="MIXPRE">     1</i>
     <i type="int" name="MREMOVE">     5</i>
    </separator>
   </separator>
   <separator name="electronic dipolcorrection" >
    <i type="logical" name="LDIPOL"> F  </i>
    <i type="logical" name="LMONO"> F  </i>
    <i type="int" name="IDIPOL">     0</i>
    <i name="EPSILON">      1.00000000</i>
    <v name="DIPOL">   -100.00000000   -100.00000000   -100.00000000</v>
    <i name="EFIELD">      0.00000000</i>
   </separator>
  </separator>
  <separator name="grids" >
   <i type="int" name="NGX">    72</i>
   <i type="int" name="NGY">    72</i>
   <i type="int" name="NGZ">    72</i>
   <i type="int" name="NGXF">   120</i>
   <i type="int" name="NGYF">   120</i>
   <i type="int" name="NGZF">   120</i>
   <i type="logical" name="ADDGRID"> F  </i>
  </separator>
  <separator name="ionic" >
   <i type="int" name="NSW">   805</i>
   <i type="int" name="IBRION">     6</i>
   <i type="int" name="ISIF">     2</i>
   <i name="PSTRESS">      0.00000000</i>
   <i name="EDIFFG">      0.00001000</i>
   <i type="int" name="NFREE">     2</i>
   <i name="POTIM">      0.50000000</i>
   <i name="SMASS">     -3.00000000</i>
   <i name="SCALEE">      1.00000000</i>
  </separator>
  <separator name="ionic md" >
   <i name="TEBEG">      0.00010000</i>
   <i name="TEEND">      0.00010000</i>
   <i type="int" name="NBLOCK">     1</i>
   <i type="int" name="KBLOCK">     1</i>
   <i type="int" name="NPACO">   256</i>
   <i name="APACO">     16.00000000</i>
  </separator>
  <separator name="symmetry" >
   <i type="int" name="ISYM">     2</i>
   <i name="SYMPREC">      0.00001000</i>
  </separator>
  <separator name="dos" >
   <i type="logical" name="LORBIT"> F  </i>
   <v name="RWIGS">     -1.00000000</v>
   <i type="int" name="NEDOS">   301</i>
   <i name="EMIN">     10.00000000</i>
   <i name="EMAX">    -10.00000000</i>
   <i name="EFERMI">      0.00000000</i>
  </separator>
  <separator name="writing" >
   <i type="int" name="NWRITE">     0</i>
   <i type="logical" name="LWAVE"> T  </i>
   <i type="logical" name="LCHARG"> T  </i>
   <i type="logical" name="LPARD"> F  </i>
   <i type="logical" name="LVTOT"> F  </i>
   <i type="logical" name="LVHAR"> F  </i>
   <i type="logical" name="LELF"> F  </i>
   <i type="logical" name="LOPTICS"> F  </i>
   <v name="STM">      0.00000000      0.00000000      0.00000000      0.00000000      0.00000000      0.00000000      0.00000000</v>
  </separator>
  <separator name="performance" >
   <i type="int" name="NPAR">     4</i>
   <i type="int" name="NSIM">     4</i>
   <i type="int" name="NBLK">    -1</i>
   <i type="logical" name="LPLANE"> T  </i>
   <i type="logical" name="LSCALAPACK"> T  </i>
   <i type="logical" name="LSCAAWARE"> F  </i>
   <i type="logical" name="LSCALU"> F  </i>
   <i type="logical" name="LASYNC"> F  </i>
   <i type="logical" name="LORBITALREAL"> F  </i>
  </separator>
  <separator name="miscellaneous" >
   <i type="int" name="IDIOT">     3</i>
   <i type="logical" name="LMUSIC"> F  </i>
   <v name="POMASS">     58.69000000</v>
   <v name="DARWINR">      0.00000000</v>
   <v name="DARWINV">      1.00000000</v>
   <i type="logical" name="LCORR"> T  </i>
  </separator>
  <i type="logical" name="GGA_COMPAT"> T  </i>
  <i type="logical" name="LBERRY"> F  </i>
  <i type="int" name="ICORELEVEL">     0</i>
  <i type="logical" name="LDAU"> F  </i>
  <i type="int" name="I_CONSTRAINED_M">     0</i>
  <separator name="electronic exchange-correlation" >
   <i type="string" name="GGA">--</i>
   <i type="int" name="VOSKOWN">     0</i>
   <i type="logical" name="LHFCALC"> F  </i>
   <i type="string" name="PRECFOCK"></i>
   <i type="logical" name="LSYMGRAD"> F  </i>
   <i type="logical" name="LHFONE"> F  </i>
   <i type="logical" name="LRHFCALC"> F  </i>
   <i type="logical" name="LTHOMAS"> F  </i>
   <i type="logical" name="LMODELHF"> F  </i>
   <i name="ENCUT4O">     -1.00000000</i>
   <i type="int" name="EXXOEP">     0</i>
   <i type="int" name="FOURORBIT">     0</i>
   <i name="AEXX">      0.00000000</i>
   <i name="HFALPHA">      0.00000000</i>
   <i name="MCALPHA">      0.00000000</i>
   <i name="ALDAX">      1.00000000</i>
   <i name="AGGAX">      1.00000000</i>
   <i name="ALDAC">      1.00000000</i>
   <i name="AGGAC">      1.00000000</i>
   <i type="int" name="NKREDX">     1</i>
   <i type="int" name="NKREDY">     1</i>
   <i type="int" name="NKREDZ">     1</i>
   <i type="logical" name="SHIFTRED"> F  </i>
   <i type="logical" name="ODDONLY"> F  </i>
   <i type="logical" name="EVENONLY"> F  </i>
   <i type="int" name="LMAXFOCK">     0</i>
   <i type="int" name="NMAXFOCKAE">     0</i>
   <i type="logical" name="LFOCKAEDFT"> F  </i>
   <i name="HFSCREEN">      0.00000000</i>
   <i name="HFSCREENC">      0.00000000</i>
   <i type="int" name="NBANDSGWLOW">     0</i>
  </separator>
  <separator name="vdW DFT" >
   <i type="logical" name="LUSE_VDW"> F  </i>
   <i name="Zab_VDW">     -0.84910000</i>
   <i name="PARAM1">      0.12340000</i>
   <i name="PARAM2">      1.00000000</i>
   <i name="PARAM3">      0.00000000</i>
  </separator>
  <separator name="model GW" >
   <i type="int" name="MODEL_GW">     0</i>
   <i name="MODEL_EPS0">      7.17927017</i>
   <i name="MODEL_ALPHA">      1.00000000</i>
  </separator>
  <separator name="linear response parameters" >
   <i type="logical" name="LEPSILON"> F  </i>
   <i type="logical" name="LRPA"> F  </i>
   <i type="logical" name="LNABLA"> F  </i>
   <i type="logical" name="LVEL"> F  </i>
   <i type="int" name="KINTER">     0</i>
   <i name="CSHIFT">      0.10000000</i>
   <i name="OMEGAMAX">     -1.00000000</i>
   <i name="DEG_THRESHOLD">      0.00200000</i>
  </separator>
  <separator name="orbital magnetization" >
   <i type="logical" name="NUCIND"> F  </i>
   <v name="MAGPOS">      0.00000000      0.00000000      0.00000000</v>
   <i type="logical" name="LNICSALL"> T  </i>
   <i type="logical" name="ORBITALMAG"> F  </i>
   <i type="logical" name="LMAGBLOCH"> F  </i>
   <i type="logical" name="LCHIMAG"> F  </i>
   <i type="logical" name="LGAUGE"> T  </i>
   <i type="int" name="MAGATOM">     0</i>
   <v name="MAGDIPOL">      0.00000000      0.00000000      0.00000000</v>
   <v name="AVECCONST">      0.00000000      0.00000000      0.00000000</v>
  </separator>
  <separator name="response functions" >
   <i type="logical" name="LADDER"> F  </i>
   <i type="logical" name="LFXC"> F  </i>
   <i type="logical" name="LHARTREE"> T  </i>
   <i type="int" name="IBSE">     0</i>
   <v type="int" name="KPOINT">    -1     0     0     0</v>
   <i type="logical" name="LTCTE"> F  </i>
   <i type="logical" name="LTETE"> F  </i>
   <i type="logical" name="LTRIPLET"> F  </i>
   <i type="logical" name="LFXCEPS"> F  </i>
   <i type="logical" name="LFXHEG"> F  </i>
   <i type="int" name="NATURALO">     0</i>
   <i type="logical" name="L2ORDER"> F  </i>
   <i type="logical" name="LUSEW"> F  </i>
   <i name="ENCUTGW">     -2.00000000</i>
   <i name="ENCUTGWSOFT">     -2.00000000</i>
   <i name="ENCUTLF">     -1.00000000</i>
   <i type="int" name="LMAXMP2">    -1</i>
   <i name="SCISSOR">      0.00000000</i>
   <i type="int" name="NOMEGA">     0</i>
   <i type="int" name="NOMEGAR">     0</i>
   <i type="int" name="NBANDSGW">    -1</i>
   <i type="int" name="NBANDSO">    -1</i>
   <i type="int" name="NBANDSV">    -1</i>
   <i type="int" name="NELM">     1</i>
   <i type="int" name="NELMHF">     1</i>
   <i type="int" name="DIM">     3</i>
   <i type="int" name="ANTIRES">     0</i>
   <i name="OMEGAMAX">    -30.00000000</i>
   <i name="OMEGAMIN">    -30.00000000</i>
   <i name="OMEGATL">   -200.00000000</i>
   <i type="int" name="OMEGAGRID">     0</i>
   <i name="CSHIFT">     -0.10000000</i>
   <i type="logical" name="SELFENERGY"> F  </i>
   <i type="logical" name="LSPECTRAL"> F  </i>
   <i type="logical" name="LSPECTRALGW"> F  </i>
   <i type="logical" name="LSINGLES"> F  </i>
   <i type="logical" name="LFERMIGW"> F  </i>
   <i type="logical" name="ODDONLYGW"> F  </i>
   <i type="logical" name="EVENONLYGW"> F  </i>
   <i type="int" name="NKREDLFX">     1</i>
   <i type="int" name="NKREDLFY">     1</i>
   <i type="int" name="NKREDLFZ">     1</i>
   <i type="int" name="MAXMEM">  1800</i>
   <i type="int" name="TELESCOPE">     0</i>
   <i type="int" name="TAUPAR">     1</i>
   <i type="int" name="OMEGAPAR">    -1</i>
   <i name="LAMBDA">      1.00000000</i>
  </separator>
  <separator name="External order field" >
   <i name="OFIELD_KAPPA">      0.00000000</i>
   <v name="OFIELD_K">      0.00000000      0.00000000      0.00000000</v>
   <i name="OFIELD_Q6_NEAR">      0.00000000</i>
   <i name="OFIELD_Q6_FAR">      0.00000000</i>
   <i name="OFIELD_A">      0.00000000</i>
  </separator>
 </parameters>
 <atominfo>
  <atoms>      64 </atoms>
  <types>       1 </types>
  <array name="atoms" >
   <dimension dim="1">ion</dimension>
   <field type="string">element</field>
   <field type="int">atomtype</field>
   <set>
    <rc><c>Ni</c><c>   1</c></rc>
    <rc><c>Ni</c><c>   1</c></rc>
    <rc><c>Ni</c><c>   1</c></rc>
    <rc><c>Ni</c><c>   1</c></rc>
    <rc><c>Ni</c><c>   1</c></rc>
    <rc><c>Ni</c><c>   1</c></rc>
    <rc><c>Ni</c><c>   1</c></rc>
    <rc><c>Ni</c><c>   1</c></rc>
    <rc><c>Ni</c><c>   1</c></rc>
    <rc><c>Ni</c><c>   1</c></rc>
    <rc><c>Ni</c><c>   1</c></rc>
    <rc><c>Ni</c><c>   1</c></rc>
    <rc><c>Ni</c><c>   1</c></rc>
    <rc><c>Ni</c><c>   1</c></rc>
    <rc><c>Ni</c><c>   1</c></rc>
    <rc><c>Ni</c><c>   1</c></rc>
    <rc><c>Ni</c><c>   1</c></rc>
    <rc><c>Ni</c><c>   1</c></rc>
    <rc><c>Ni</c><c>   1</c></rc>
    <rc><c>Ni</c><c>   1</c></rc>
    <rc><c>Ni</c><c>   1</c></rc>
    <rc><c>Ni</c><c>   1</c></rc>
    <rc><c>Ni</c><c>   1</c></rc>
    <rc><c>Ni</c><c>   1</c></rc>
    <rc><c>Ni</c><c>   1</c></rc>
    <rc><c>Ni</c><c>   1</c></rc>
    <rc><c>Ni</c><c>   1</c></rc>
    <rc><c>Ni</c><c>   1</c></rc>
    <rc><c>Ni</c><c>   1</c></rc>
    <rc><c>Ni</c><c>   1</c></rc>
    <rc><c>Ni</c><c>   1</c></rc>
    <rc><c>Ni</c><c>   1</c></rc>
    <rc><c>Ni</c><c>   1</c></rc>
    <rc><c>Ni</c><c>   1</c></rc>
    <rc><c>Ni</c><c>   1</c></rc>
    <rc><c>Ni</c><c>   1</c></rc>
    <rc><c>Ni</c><c>   1</c></rc>
    <rc><c>Ni</c><c>   1</c></rc>
    <rc><c>Ni</c><c>   1</c></rc>
    <rc><c>Ni</c><c>   1</c></rc>
    <rc><c>Ni</c><c>   1</c></rc>
    <rc><c>Ni</c><c>   1</c></rc>
    <rc><c>Ni</c><c>   1</c></rc>
    <rc><c>Ni</c><c>   1</c></rc>
    <rc><c>Ni</c><c>   1</c></rc>
    <rc><c>Ni</c><c>   1</c></rc>
    <rc><c>Ni</c><c>   1</c></rc>
    <rc><c>Ni</c><c>   1</c></rc>
    <rc><c>Ni</c><c>   1</c></rc>
    <rc><c>Ni</c><c>   1</c></rc>
    <rc><c>Ni</c><c>   1</c></rc>
    <rc><c>Ni</c><c>   1</c></rc>
    <rc><c>Ni</c><c>   1</c></rc>
    <rc><c>Ni</c><c>   1</c></rc>
    <rc><c>Ni</c><c>   1</c></rc>
    <rc><c>Ni</c><c>   1</c></rc>
    <rc><c>Ni</c><c>   1</c></rc>
    <rc><c>Ni</c><c>   1</c></rc>
    <rc><c>Ni</c><c>   1</c></rc>
    <rc><c>Ni</c><c>   1</c></rc>
    <rc><c>Ni</c><c>   1</c></rc>
    <rc><c>Ni</c><c>   1</c></rc>
    <rc><c>Ni</c><c>   1</c></rc>
    <rc><c>Ni</c><c>   1</c></rc>
   </set>
  </array>
  <array name="atomtypes" >
   <dimension dim="1">type</dimension>
   <field type="int">atomspertype</field>
   <field type="string">element</field>
   <field>mass</field>
   <field>valence</field>
   <field type="string">pseudopotential</field>
   <set>
    <rc><c>  64</c><c>Ni</c><c>     58.69000000</c><c>     16.00000000</c><c> PAW_PBE Ni_pv 06Sep2000                </c></rc>
   </set>
  </array>
 </atominfo>
 <structure name="initialpos" >
  <crystal>
   <varray name="basis" >
    <v>       0.00000000       7.26150000       7.26150000 </v>
    <v>       7.26150000       0.00000000       7.26150000 </v>
    <v>       7.26150000       7.26150000       0.00000000 </v>
   </varray>
   <i name="volume">    765.78881842 </i>
   <varray name="rec_basis" >
    <v>      -0.06885630       0.06885630       0.06885630 </v>
    <v>       0.06885630      -0.06885630       0.06885630 </v>
    <v>       0.06885630       0.06885630      -0.06885630 </v>
   </varray>
  </crystal>
  <varray name="positions" >
   <v>       0.00000000       0.00000000       0.00000000 </v>
   <v>       0.00000000       0.00000000       0.25000000 </v>
   <v>       0.00000000       0.00000000       0.50000000 </v>
   <v>       0.00000000       0.00000000       0.75000000 </v>
   <v>       0.00000000       0.25000000       0.00000000 </v>
   <v>       0.00000000       0.25000000       0.25000000 </v>
   <v>       0.00000000       0.25000000       0.50000000 </v>
   <v>       0.00000000       0.25000000       0.75000000 </v>
   <v>       0.00000000       0.50000000       0.00000000 </v>
   <v>       0.00000000       0.50000000       0.25000000 </v>
   <v>       0.00000000       0.50000000       0.50000000 </v>
   <v>       0.00000000       0.50000000       0.75000000 </v>
   <v>       0.00000000       0.75000000       0.00000000 </v>
   <v>       0.00000000       0.75000000       0.25000000 </v>
   <v>       0.00000000       0.75000000       0.50000000 </v>
   <v>       0.00000000       0.75000000       0.75000000 </v>
   <v>       0.25000000       0.00000000       0.00000000 </v>
   <v>       0.25000000       0.00000000       0.25000000 </v>
   <v>       0.25000000       0.00000000       0.50000000 </v>
   <v>       0.25000000       0.00000000       0.75000000 </v>
   <v>       0.25000000       0.25000000       0.00000000 </v>
   <v>       0.25000000       0.25000000       0.25000000 </v>
   <v>       0.25000000       0.25000000       0.50000000 </v>
   <v>       0.25000000       0.25000000       0.75000000 </v>
   <v>       0.25000000       0.50000000       0.00000000 </v>
   <v>       0.25000000       0.50000000       0.25000000 </v>
   <v>       0.25000000       0.50000000       0.50000000 </v>
   <v>       0.25000000       0.50000000       0.75000000 </v>
   <v>       0.25000000       0.75000000       0.00000000 </v>
   <v>       0.25000000       0.75000000       0.25000000 </v>
   <v>       0.25000000       0.75000000       0.50000000 </v>
   <v>       0.25000000       0.75000000       0.75000000 </v>
   <v>       0.50000000       0.00000000       0.00000000 </v>
   <v>       0.50000000       0.00000000       0.25000000 </v>
   <v>       0.50000000       0.00000000       0.50000000 </v>
   <v>       0.50000000       0.00000000       0.75000000 </v>
   <v>       0.50000000       0.25000000       0.00000000 </v>
   <v>       0.50000000       0.25000000       0.25000000 </v>
   <v>       0.50000000       0.25000000       0.50000000 </v>
   <v>       0.50000000       0.25000000       0.75000000 </v>
   <v>       0.50000000       0.50000000       0.00000000 </v>
   <v>       0.50000000       0.50000000       0.25000000 </v>
   <v>       0.50000000       0.50000000       0.50000000 </v>
   <v>       0.50000000       0.50000000       0.75000000 </v>
   <v>       0.50000000       0.75000000       0.00000000 </v>
   <v>       0.50000000       0.75000000       0.25000000 </v>
   <v>       0.50000000       0.75000000       0.50000000 </v>
   <v>       0.50000000       0.75000000       0.75000000 </v>
   <v>       0.75000000       0.00000000       0.00000000 </v>
   <v>       0.75000000       0.00000000       0.25000000 </v>
   <v>       0.75000000       0.00000000       0.50000000 </v>
   <v>       0.75000000       0.00000000       0.75000000 </v>
   <v>       0.75000000       0.25000000       0.00000000 </v>
   <v>       0.75000000       0.25000000       0.25000000 </v>
   <v>       0.75000000       0.25000000       0.50000000 </v>
   <v>       0.75000000       0.25000000       0.75000000 </v>
   <v>       0.75000000       0.50000000       0.00000000 </v>
   <v>       0.75000000       0.50000000       0.25000000 </v>
   <v>       0.75000000       0.50000000       0.50000000 </v>
   <v>       0.75000000       0.50000000       0.75000000 </v>
   <v>       0.75000000       0.75000000       0.00000000 </v>
   <v>       0.75000000       0.75000000       0.25000000 </v>
   <v>       0.75000000       0.75000000       0.50000000 </v>
   <v>       0.75000000       0.75000000       0.75000000 </v>
  </varray>
 </structure>
 <calculation>
  <scstep>
   <time name="dav">  157.02  156.89</time>
   <time name="total">  157.61  157.48</time>
   <energy>
    <i name="alphaZ">   9010.57505126 </i>
    <i name="ewald">-148962.18054694 </i>
    <i name="hartreedc"> -64548.20625032 </i>
    <i name="XCdc">   5698.56874546 </i>
    <i name="pawpsdc"> 172361.15642774 </i>
    <i name="pawaedc">-181272.45834873 </i>
    <i name="eentropy">     -0.01332885 </i>
    <i name="bandstr">   -702.04900264 </i>
    <i name="atom"> 224016.65216645 </i>
    <i name="e_fr_energy">  15602.04491343 </i>
    <i name="e_wo_entrp">  15602.05824228 </i>
    <i name="e_0_energy">  15602.04935638 </i>
   </energy>
  </scstep>
  <scstep>
   <time name="dav">  143.60  143.48</time>
   <time name="total">  143.60  143.49</time>
   <energy>
    <i name="e_fr_energy">   1048.33265879 </i>
    <i name="e_wo_entrp">   1048.34178070 </i>
    <i name="e_0_energy">   1048.33569943 </i>
   </energy>
  </scstep>
  <scstep>
   <time name="dav">  145.48  145.36</time>
   <time name="total">  145.49  145.37</time>
   <energy>
    <i name="e_fr_energy">   -347.00984618 </i>
    <i name="e_wo_entrp">   -347.20028383 </i>
    <i name="e_0_energy">   -347.07332540 </i>
   </energy>
  </scstep>
  <scstep>
   <time name="dav">  150.80  150.67</time>
   <time name="total">  150.80  150.68</time>
   <energy>
    <i name="e_fr_energy">   -428.32302941 </i>
    <i name="e_wo_entrp">   -428.50533872 </i>
    <i name="e_0_energy">   -428.38379918 </i>
   </energy>
  </scstep>
  <scstep>
   <time name="dav">  150.07  149.95</time>
   <time name="total">  158.24  158.11</time>
   <energy>
    <i name="e_fr_energy">   -429.70763802 </i>
    <i name="e_wo_entrp">   -429.88980429 </i>
    <i name="e_0_energy">   -429.76836011 </i>
   </energy>
  </scstep>
  <scstep>
   <time name="dav">  149.21  149.09</time>
   <time name="total">  157.69  157.56</time>
   <energy>
    <i name="e_fr_energy">   -402.34784737 </i>
    <i name="e_wo_entrp">   -401.90275424 </i>
    <i name="e_0_energy">   -402.19948299 </i>
   </energy>
  </scstep>
  <scstep>
   <time name="dav">  148.70  148.57</time>
   <time name="total">  157.30  157.17</time>
   <energy>
    <i name="e_fr_energy">   -367.22677190 </i>
    <i name="e_wo_entrp">   -367.19642828 </i>
    <i name="e_0_energy">   -367.21665736 </i>
   </energy>
  </scstep>
  <scstep>
   <time name="dav">  150.78  150.66</time>
   <time name="total">  159.32  159.19</time>
   <energy>
    <i name="e_fr_energy">   -367.33785372 </i>
    <i name="e_wo_entrp">   -367.31973181 </i>
    <i name="e_0_energy">   -367.33181309 </i>
   </energy>
  </scstep>
  <scstep>
   <time name="dav">  154.55  154.42</time>
   <time name="total">  163.09  162.95</time>
   <energy>
    <i name="e_fr_energy">   -367.19163833 </i>
    <i name="e_wo_entrp">   -367.16532683 </i>
    <i name="e_0_energy">   -367.18286783 </i>
   </energy>
  </scstep>
  <scstep>
   <time name="dav">  159.16  159.03</time>
   <time name="total">  167.69  167.56</time>
   <energy>
    <i name="e_fr_energy">   -367.19828899 </i>
    <i name="e_wo_entrp">   -367.17237357 </i>
    <i name="e_0_energy">   -367.18965052 </i>
   </energy>
  </scstep>
  <scstep>
   <time name="dav">  150.45  150.33</time>
   <time name="total">  159.06  158.93</time>
   <energy>
    <i name="e_fr_energy">   -367.20270612 </i>
    <i name="e_wo_entrp">   -367.17765181 </i>
    <i name="e_0_energy">   -367.19435468 </i>
   </energy>
  </scstep>
  <scstep>
   <time name="dav">  149.97  149.84</time>
   <time name="total">  158.57  158.44</time>
   <energy>
    <i name="e_fr_energy">   -367.20273144 </i>
    <i name="e_wo_entrp">   -367.17637801 </i>
    <i name="e_0_energy">   -367.19394696 </i>
   </energy>
  </scstep>
  <scstep>
   <time name="dav">  152.50  152.38</time>
   <time name="total">  161.10  160.97</time>
   <energy>
    <i name="e_fr_energy">   -367.20273704 </i>
    <i name="e_wo_entrp">   -367.17621657 </i>
    <i name="e_0_energy">   -367.19389688 </i>
   </energy>
  </scstep>
  <scstep>
   <time name="dav">  128.01  127.90</time>
   <time name="total">  136.61  136.49</time>
   <energy>
    <i name="e_fr_energy">   -367.20271643 </i>
    <i name="e_wo_entrp">   -367.17627267 </i>
    <i name="e_0_energy">   -367.19390184 </i>
   </energy>
  </scstep>
  <scstep>
   <time name="dav">   97.58   97.50</time>
   <time name="total">  106.23  106.14</time>
   <energy>
    <i name="e_fr_energy">   -367.20270964 </i>
    <i name="e_wo_entrp">   -367.17631899 </i>
    <i name="e_0_energy">   -367.19391276 </i>
   </energy>
  </scstep>
  <scstep>
   <time name="dav">   91.68   91.61</time>
   <time name="total">   92.27   92.20</time>
   <energy>
    <i name="alphaZ">   9010.57505126 </i>
    <i name="ewald">-148962.18054694 </i>
    <i name="hartreedc"> -62219.74859380 </i>
    <i name="XCdc">   5611.86676676 </i>
    <i name="pawpsdc"> 170969.21042863 </i>
    <i name="pawaedc">-180016.74307645 </i>
    <i name="eentropy">     -0.02638764 </i>
    <i name="bandstr"> -18776.80851815 </i>
    <i name="atom"> 224016.65216645 </i>
    <i name="e_fr_energy">   -367.20270989 </i>
    <i name="e_wo_entrp">   -367.17632225 </i>
    <i name="e_0_energy">   -367.19391401 </i>
   </energy>
  </scstep>
  <structure>
   <crystal>
    <varray name="basis" >
     <v>       0.00000000       7.26150000       7.26150000 </v>
     <v>       7.26150000       0.00000000       7.26150000 </v>
     <v>       7.26150000       7.26150000       0.00000000 </v>
    </varray>
    <i name="volume">    765.78881842 </i>
    <varray name="rec_basis" >
     <v>      -0.06885630       0.06885630       0.06885630 </v>
     <v>       0.06885630      -0.06885630       0.06885630 </v>
     <v>       0.06885630       0.06885630      -0.06885630 </v>
    </varray>
   </crystal>
   <varray name="positions" >
    <v>       0.00000000       0.00000000       0.00000000 </v>
    <v>       0.00000000       0.00000000       0.25000000 </v>
    <v>       0.00000000       0.00000000       0.50000000 </v>
    <v>       0.00000000       0.00000000       0.75000000 </v>
    <v>       0.00000000       0.25000000       0.00000000 </v>
    <v>       0.00000000       0.25000000       0.25000000 </v>
    <v>       0.00000000       0.25000000       0.50000000 </v>
    <v>       0.00000000       0.25000000       0.75000000 </v>
    <v>       0.00000000       0.50000000       0.00000000 </v>
    <v>       0.00000000       0.50000000       0.25000000 </v>
    <v>       0.00000000       0.50000000       0.50000000 </v>
    <v>       0.00000000       0.50000000       0.75000000 </v>
    <v>       0.00000000       0.75000000       0.00000000 </v>
    <v>       0.00000000       0.75000000       0.25000000 </v>
    <v>       0.00000000       0.75000000       0.50000000 </v>
    <v>       0.00000000       0.75000000       0.75000000 </v>
    <v>       0.25000000       0.00000000       0.00000000 </v>
    <v>       0.25000000       0.00000000       0.25000000 </v>
    <v>       0.25000000       0.00000000       0.50000000 </v>
    <v>       0.25000000       0.00000000       0.75000000 </v>
    <v>       0.25000000       0.25000000       0.00000000 </v>
    <v>       0.25000000       0.25000000       0.25000000 </v>
    <v>       0.25000000       0.25000000       0.50000000 </v>
    <v>       0.25000000       0.25000000       0.75000000 </v>
    <v>       0.25000000       0.50000000       0.00000000 </v>
    <v>       0.25000000       0.50000000       0.25000000 </v>
    <v>       0.25000000       0.50000000       0.50000000 </v>
    <v>       0.25000000       0.50000000       0.75000000 </v>
    <v>       0.25000000       0.75000000       0.00000000 </v>
    <v>       0.25000000       0.75000000       0.25000000 </v>
    <v>       0.25000000       0.75000000       0.50000000 </v>
    <v>       0.25000000       0.75000000       0.75000000 </v>
    <v>       0.50000000       0.00000000       0.00000000 </v>
    <v>       0.50000000       0.00000000       0.25000000 </v>
    <v>       0.50000000       0.00000000       0.50000000 </v>
    <v>       0.50000000       0.00000000       0.75000000 </v>
    <v>       0.50000000       0.25000000       0.00000000 </v>
    <v>       0.50000000       0.25000000       0.25000000 </v>
    <v>       0.50000000       0.25000000       0.50000000 </v>
    <v>       0.50000000       0.25000000       0.75000000 </v>
    <v>       0.50000000       0.50000000       0.00000000 </v>
    <v>       0.50000000       0.50000000       0.25000000 </v>
    <v>       0.50000000       0.50000000       0.50000000 </v>
    <v>       0.50000000       0.50000000       0.75000000 </v>
    <v>       0.50000000       0.75000000       0.00000000 </v>
    <v>       0.50000000       0.75000000       0.25000000 </v>
    <v>       0.50000000       0.75000000       0.50000000 </v>
    <v>       0.50000000       0.75000000       0.75000000 </v>
    <v>       0.75000000       0.00000000       0.00000000 </v>
    <v>       0.75000000       0.00000000       0.25000000 </v>
    <v>       0.75000000       0.00000000       0.50000000 </v>
    <v>       0.75000000       0.00000000       0.75000000 </v>
    <v>       0.75000000       0.25000000       0.00000000 </v>
    <v>       0.75000000       0.25000000       0.25000000 </v>
    <v>       0.75000000       0.25000000       0.50000000 </v>
    <v>       0.75000000       0.25000000       0.75000000 </v>
    <v>       0.75000000       0.50000000       0.00000000 </v>
    <v>       0.75000000       0.50000000       0.25000000 </v>
    <v>       0.75000000       0.50000000       0.50000000 </v>
    <v>       0.75000000       0.50000000       0.75000000 </v>
    <v>       0.75000000       0.75000000       0.00000000 </v>
    <v>       0.75000000       0.75000000       0.25000000 </v>
    <v>       0.75000000       0.75000000       0.50000000 </v>
    <v>       0.75000000       0.75000000       0.75000000 </v>
   </varray>
  </structure>
  <varray name="forces" >
   <v>      -0.00000000       0.00000000       0.00000000 </v>
   <v>       0.00000000      -0.00000000      -0.00000000 </v>
   <v>       0.00000000       0.00000000      -0.00000000 </v>
   <v>      -0.00000000      -0.00000000       0.00000000 </v>
   <v>       0.00000000       0.00000000       0.00000000 </v>
   <v>       0.00000000       0.00000000       0.00000000 </v>
   <v>       0.00000000      -0.00000000      -0.00000000 </v>
   <v>      -0.00000000      -0.00000000      -0.00000000 </v>
   <v>       0.00000000       0.00000000       0.00000000 </v>
   <v>      -0.00000000       0.00000000       0.00000000 </v>
   <v>      -0.00000000       0.00000000       0.00000000 </v>
   <v>       0.00000000      -0.00000000       0.00000000 </v>
   <v>       0.00000000       0.00000000      -0.00000000 </v>
   <v>       0.00000000      -0.00000000       0.00000000 </v>
   <v>      -0.00000000       0.00000000      -0.00000000 </v>
   <v>      -0.00000000      -0.00000000       0.00000000 </v>
   <v>       0.00000000       0.00000000       0.00000000 </v>
   <v>       0.00000000      -0.00000000      -0.00000000 </v>
   <v>       0.00000000       0.00000000      -0.00000000 </v>
   <v>       0.00000000       0.00000000       0.00000000 </v>
   <v>       0.00000000      -0.00000000      -0.00000000 </v>
   <v>       0.00000000       0.00000000      -0.00000000 </v>
   <v>      -0.00000000      -0.00000000      -0.00000000 </v>
   <v>      -0.00000000      -0.00000000      -0.00000000 </v>
   <v>       0.00000000       0.00000000      -0.00000000 </v>
   <v>      -0.00000000       0.00000000       0.00000000 </v>
   <v>       0.00000000      -0.00000000       0.00000000 </v>
   <v>      -0.00000000      -0.00000000       0.00000000 </v>
   <v>       0.00000000       0.00000000      -0.00000000 </v>
   <v>      -0.00000000      -0.00000000       0.00000000 </v>
   <v>      -0.00000000      -0.00000000       0.00000000 </v>
   <v>       0.00000000      -0.00000000       0.00000000 </v>
   <v>       0.00000000       0.00000000       0.00000000 </v>
   <v>       0.00000000      -0.00000000      -0.00000000 </v>
   <v>       0.00000000      -0.00000000      -0.00000000 </v>
   <v>      -0.00000000      -0.00000000       0.00000000 </v>
   <v>       0.00000000       0.00000000      -0.00000000 </v>
   <v>       0.00000000       0.00000000      -0.00000000 </v>
   <v>       0.00000000      -0.00000000      -0.00000000 </v>
   <v>      -0.00000000      -0.00000000       0.00000000 </v>
   <v>       0.00000000      -0.00000000       0.00000000 </v>
   <v>      -0.00000000       0.00000000       0.00000000 </v>
   <v>      -0.00000000       0.00000000       0.00000000 </v>
   <v>      -0.00000000      -0.00000000      -0.00000000 </v>
   <v>       0.00000000      -0.00000000      -0.00000000 </v>
   <v>       0.00000000       0.00000000       0.00000000 </v>
   <v>      -0.00000000      -0.00000000      -0.00000000 </v>
   <v>      -0.00000000      -0.00000000      -0.00000000 </v>
   <v>       0.00000000       0.00000000       0.00000000 </v>
   <v>       0.00000000       0.00000000       0.00000000 </v>
   <v>      -0.00000000      -0.00000000      -0.00000000 </v>
   <v>      -0.00000000      -0.00000000       0.00000000 </v>
   <v>       0.00000000      -0.00000000       0.00000000 </v>
   <v>      -0.00000000       0.00000000      -0.00000000 </v>
   <v>      -0.00000000      -0.00000000      -0.00000000 </v>
   <v>      -0.00000000      -0.00000000      -0.00000000 </v>
   <v>       0.00000000       0.00000000       0.00000000 </v>
   <v>       0.00000000       0.00000000       0.00000000 </v>
   <v>      -0.00000000      -0.00000000       0.00000000 </v>
   <v>       0.00000000      -0.00000000      -0.00000000 </v>
   <v>       0.00000000       0.00000000      -0.00000000 </v>
   <v>      -0.00000000       0.00000000       0.00000000 </v>
   <v>      -0.00000000       0.00000000       0.00000000 </v>
   <v>       0.00000000      -0.00000000       0.00000000 </v>
  </varray>
  <varray name="stress" >
   <v>    -150.76163962      -0.00000000       0.00000000 </v>
   <v>      -0.00000000    -150.76163962      -0.00000000 </v>
   <v>       0.00000000      -0.00000000    -150.76163962 </v>
  </varray>
  <energy>
   <i name="e_fr_energy">   -367.20270989 </i>
   <i name="e_wo_entrp">   -367.19391401 </i>
   <i name="e_0_energy">     -0.02638764 </i>
  </energy>
  <kpoints>
   <generation param="Gamma">
    <v type="int" name="divisions">       3        3        3 </v>
    <v name="usershift">      0.00000000       0.00000000       0.00000000 </v>
    <v name="genvec1">      0.33333333       0.00000000       0.00000000 </v>
    <v name="genvec2">      0.00000000       0.33333333       0.00000000 </v>
    <v name="genvec3">      0.00000000       0.00000000       0.33333333 </v>
    <v name="shift">      0.00000000       0.00000000       0.00000000 </v>
   </generation>
   <varray name="kpointlist" >
    <v>       0.00000000       0.00000000       0.00000000 </v>
    <v>       0.33333333       0.00000000       0.00000000 </v>
    <v>       0.33333333       0.33333333       0.00000000 </v>
    <v>      -0.33333333       0.33333333       0.00000000 </v>
    <v>       0.00000000       0.33333333       0.33333333 </v>
    <v>      -0.33333333       0.33333333       0.33333333 </v>
   </varray>
   <varray name="weights" >
    <v>       0.03703704 </v>
    <v>       0.29629630 </v>
    <v>       0.14814815 </v>
    <v>       0.29629630 </v>
    <v>       0.07407407 </v>
    <v>       0.14814815 </v>
   </varray>
  </kpoints>
  <time name="totalsc"> 2559.47 2558.99</time>
 </calculation>
 <calculation>
  <scstep>
   <time name="dav">  270.25  270.03</time>
   <time name="total">  281.66  281.43</time>
   <energy>
    <i name="alphaZ">   9010.57505126 </i>
    <i name="ewald">-148962.03763724 </i>
    <i name="hartreedc"> -62219.88632588 </i>
    <i name="XCdc">   5611.86747673 </i>
    <i name="pawpsdc"> 170969.03055733 </i>
    <i name="pawaedc">-180016.57149028 </i>
    <i name="eentropy">     -0.02635794 </i>
    <i name="bandstr"> -18776.70954564 </i>
    <i name="atom"> 224016.65216645 </i>
    <i name="e_fr_energy">   -367.10610520 </i>
    <i name="e_wo_entrp">   -367.07974727 </i>
    <i name="e_0_energy">   -367.09731922 </i>
   </energy>
  </scstep>
  <scstep>
   <time name="dav">  221.37  221.19</time>
   <time name="total">  232.59  232.40</time>
   <energy>
    <i name="e_fr_energy">   -367.20180594 </i>
    <i name="e_wo_entrp">   -367.17540821 </i>
    <i name="e_0_energy">   -367.19300669 </i>
   </energy>
  </scstep>
  <scstep>
   <time name="dav">  261.54  261.32</time>
   <time name="total">  272.74  272.51</time>
   <energy>
    <i name="e_fr_energy">   -367.20579103 </i>
    <i name="e_wo_entrp">   -367.17927945 </i>
    <i name="e_0_energy">   -367.19695383 </i>
   </energy>
  </scstep>
  <scstep>
   <time name="dav">  244.46  244.26</time>
   <time name="total">  255.73  255.52</time>
   <energy>
    <i name="e_fr_energy">   -367.20365133 </i>
    <i name="e_wo_entrp">   -367.17725252 </i>
    <i name="e_0_energy">   -367.19485173 </i>
   </energy>
  </scstep>
  <scstep>
   <time name="dav">  234.15  233.96</time>
   <time name="total">  245.36  245.16</time>
   <energy>
    <i name="e_fr_energy">   -367.20216280 </i>
    <i name="e_wo_entrp">   -367.17576888 </i>
    <i name="e_0_energy">   -367.19336483 </i>
   </energy>
  </scstep>
  <scstep>
   <time name="dav">  267.97  267.75</time>
   <time name="total">  279.14  278.92</time>
   <energy>
    <i name="e_fr_energy">   -367.20215201 </i>
    <i name="e_wo_entrp">   -367.17575908 </i>
    <i name="e_0_energy">   -367.19335437 </i>
   </energy>
  </scstep>
  <scstep>
   <time name="dav">  235.27  235.07</time>
   <time name="total">  246.44  246.24</time>
   <energy>
    <i name="e_fr_energy">   -367.20209389 </i>
    <i name="e_wo_entrp">   -367.17570369 </i>
    <i name="e_0_energy">   -367.19329715 </i>
   </energy>
  </scstep>
  <scstep>
   <time name="dav">  235.66  235.47</time>
   <time name="total">  246.70  246.50</time>
   <energy>
    <i name="e_fr_energy">   -367.20207532 </i>
    <i name="e_wo_entrp">   -367.17568512 </i>
    <i name="e_0_energy">   -367.19327859 </i>
   </energy>
  </scstep>
  <scstep>
   <time name="dav">  237.63  237.44</time>
   <time name="total">  248.75  248.55</time>
   <energy>
    <i name="e_fr_energy">   -367.20205133 </i>
    <i name="e_wo_entrp">   -367.17566502 </i>
    <i name="e_0_energy">   -367.19325589 </i>
   </energy>
  </scstep>
  <scstep>
   <time name="dav">  270.58  270.36</time>
   <time name="total">  281.64  281.41</time>
   <energy>
    <i name="e_fr_energy">   -367.20194583 </i>
    <i name="e_wo_entrp">   -367.17555957 </i>
    <i name="e_0_energy">   -367.19315041 </i>
   </energy>
  </scstep>
  <scstep>
   <time name="dav">  290.94  290.70</time>
   <time name="total">  301.98  301.74</time>
   <energy>
    <i name="e_fr_energy">   -367.20195130 </i>
    <i name="e_wo_entrp">   -367.17556778 </i>
    <i name="e_0_energy">   -367.19315679 </i>
   </energy>
  </scstep>
  <scstep>
   <time name="dav">  233.40  233.20</time>
   <time name="total">  244.45  244.25</time>
   <energy>
    <i name="e_fr_energy">   -367.20194611 </i>
    <i name="e_wo_entrp">   -367.17556451 </i>
    <i name="e_0_energy">   -367.19315224 </i>
   </energy>
  </scstep>
  <scstep>
   <time name="dav">  213.45  213.27</time>
   <time name="total">  224.41  224.23</time>
   <energy>
    <i name="e_fr_energy">   -367.20194395 </i>
    <i name="e_wo_entrp">   -367.17556323 </i>
    <i name="e_0_energy">   -367.19315038 </i>
   </energy>
  </scstep>
  <scstep>
   <time name="dav">  139.82  139.71</time>
   <time name="total">  140.41  140.29</time>
   <energy>
    <i name="alphaZ">   9010.57505126 </i>
    <i name="ewald">-148962.03763724 </i>
    <i name="hartreedc"> -62219.86883887 </i>
    <i name="XCdc">   5611.86658441 </i>
    <i name="pawpsdc"> 170968.84929735 </i>
    <i name="pawaedc">-180016.39013647 </i>
    <i name="eentropy">     -0.02638311 </i>
    <i name="bandstr"> -18776.82204810 </i>
    <i name="atom"> 224016.65216645 </i>
    <i name="e_fr_energy">   -367.20194433 </i>
    <i name="e_wo_entrp">   -367.17556122 </i>
    <i name="e_0_energy">   -367.19314996 </i>
   </energy>
  </scstep>
  <structure>
   <crystal>
    <varray name="basis" >
     <v>       0.00000000       7.26150000       7.26150000 </v>
     <v>       7.26150000       0.00000000       7.26150000 </v>
     <v>       7.26150000       7.26150000       0.00000000 </v>
    </varray>
    <i name="volume">    765.78881842 </i>
    <varray name="rec_basis" >
     <v>      -0.06885630       0.06885630       0.06885630 </v>
     <v>       0.06885630      -0.06885630       0.06885630 </v>
     <v>       0.06885630       0.06885630      -0.06885630 </v>
    </varray>
   </crystal>
   <varray name="positions" >
    <v>      -0.00103284       0.00103284       0.00103284 </v>
    <v>       0.00000000       0.00000000       0.25000000 </v>
    <v>       0.00000000       0.00000000       0.50000000 </v>
    <v>       0.00000000       0.00000000       0.75000000 </v>
    <v>       0.00000000       0.25000000       0.00000000 </v>
    <v>       0.00000000       0.25000000       0.25000000 </v>
    <v>       0.00000000       0.25000000       0.50000000 </v>
    <v>       0.00000000       0.25000000       0.75000000 </v>
    <v>       0.00000000       0.50000000       0.00000000 </v>
    <v>       0.00000000       0.50000000       0.25000000 </v>
    <v>       0.00000000       0.50000000       0.50000000 </v>
    <v>       0.00000000       0.50000000       0.75000000 </v>
    <v>       0.00000000       0.75000000       0.00000000 </v>
    <v>       0.00000000       0.75000000       0.25000000 </v>
    <v>       0.00000000       0.75000000       0.50000000 </v>
    <v>       0.00000000       0.75000000       0.75000000 </v>
    <v>       0.25000000       0.00000000       0.00000000 </v>
    <v>       0.25000000       0.00000000       0.25000000 </v>
    <v>       0.25000000       0.00000000       0.50000000 </v>
    <v>       0.25000000       0.00000000       0.75000000 </v>
    <v>       0.25000000       0.25000000       0.00000000 </v>
    <v>       0.25000000       0.25000000       0.25000000 </v>
    <v>       0.25000000       0.25000000       0.50000000 </v>
    <v>       0.25000000       0.25000000       0.75000000 </v>
    <v>       0.25000000       0.50000000       0.00000000 </v>
    <v>       0.25000000       0.50000000       0.25000000 </v>
    <v>       0.25000000       0.50000000       0.50000000 </v>
    <v>       0.25000000       0.50000000       0.75000000 </v>
    <v>       0.25000000       0.75000000       0.00000000 </v>
    <v>       0.25000000       0.75000000       0.25000000 </v>
    <v>       0.25000000       0.75000000       0.50000000 </v>
    <v>       0.25000000       0.75000000       0.75000000 </v>
    <v>       0.50000000       0.00000000       0.00000000 </v>
    <v>       0.50000000       0.00000000       0.25000000 </v>
    <v>       0.50000000       0.00000000       0.50000000 </v>
    <v>       0.50000000       0.00000000       0.75000000 </v>
    <v>       0.50000000       0.25000000       0.00000000 </v>
    <v>       0.50000000       0.25000000       0.25000000 </v>
    <v>       0.50000000       0.25000000       0.50000000 </v>
    <v>       0.50000000       0.25000000       0.75000000 </v>
    <v>       0.50000000       0.50000000       0.00000000 </v>
    <v>       0.50000000       0.50000000       0.25000000 </v>
    <v>       0.50000000       0.50000000       0.50000000 </v>
    <v>       0.50000000       0.50000000       0.75000000 </v>
    <v>       0.50000000       0.75000000       0.00000000 </v>
    <v>       0.50000000       0.75000000       0.25000000 </v>
    <v>       0.50000000       0.75000000       0.50000000 </v>
    <v>       0.50000000       0.75000000       0.75000000 </v>
    <v>       0.75000000       0.00000000       0.00000000 </v>
    <v>       0.75000000       0.00000000       0.25000000 </v>
    <v>       0.75000000       0.00000000       0.50000000 </v>
    <v>       0.75000000       0.00000000       0.75000000 </v>
    <v>       0.75000000       0.25000000       0.00000000 </v>
    <v>       0.75000000       0.25000000       0.25000000 </v>
    <v>       0.75000000       0.25000000       0.50000000 </v>
    <v>       0.75000000       0.25000000       0.75000000 </v>
    <v>       0.75000000       0.50000000       0.00000000 </v>
    <v>       0.75000000       0.50000000       0.25000000 </v>
    <v>       0.75000000       0.50000000       0.50000000 </v>
    <v>       0.75000000       0.50000000       0.75000000 </v>
    <v>       0.75000000       0.75000000       0.00000000 </v>
    <v>       0.75000000       0.75000000       0.25000000 </v>
    <v>       0.75000000       0.75000000       0.50000000 </v>
    <v>       0.75000000       0.75000000       0.75000000 </v>
   </varray>
  </structure>
  <varray name="forces" >
   <v>      -0.10170006      -0.00000000      -0.00000000 </v>
   <v>       0.01034539       0.01102862      -0.00000000 </v>
   <v>       0.00027182       0.00008081      -0.00000000 </v>
   <v>       0.00974072       0.01029118      -0.00000000 </v>
   <v>       0.01034539      -0.00000000       0.01102862 </v>
   <v>       0.00115322       0.00060976       0.00060976 </v>
   <v>       0.00038595       0.00059174      -0.00032220 </v>
   <v>       0.00044123       0.00004957      -0.00004957 </v>
   <v>       0.00027182      -0.00000000       0.00008081 </v>
   <v>       0.00038595      -0.00032220       0.00059174 </v>
   <v>       0.00015992      -0.00000000      -0.00000000 </v>
   <v>       0.00038403      -0.00029844       0.00065501 </v>
   <v>       0.00974072      -0.00000000       0.01029118 </v>
   <v>       0.00044123      -0.00004957       0.00004957 </v>
   <v>       0.00038403       0.00065501      -0.00029844 </v>
   <v>       0.00107821       0.00062771       0.00062771 </v>
   <v>       0.00044123      -0.00004957      -0.00004957 </v>
   <v>       0.00038403       0.00065501       0.00029844 </v>
   <v>       0.00107821       0.00062771      -0.00062771 </v>
   <v>       0.00974072      -0.00000000      -0.01029118 </v>
   <v>       0.00038403       0.00029844       0.00065501 </v>
   <v>       0.00036010      -0.00000000      -0.00000000 </v>
   <v>       0.00038595       0.00032220      -0.00059174 </v>
   <v>      -0.00049987      -0.00000000       0.00002492 </v>
   <v>       0.00107821      -0.00062771       0.00062771 </v>
   <v>       0.00038595      -0.00059174       0.00032220 </v>
   <v>      -0.00008363       0.00000599       0.00000599 </v>
   <v>       0.00017132      -0.00000000      -0.00007306 </v>
   <v>       0.00974072      -0.01029118      -0.00000000 </v>
   <v>      -0.00049987       0.00002492      -0.00000000 </v>
   <v>       0.00017132      -0.00007306      -0.00000000 </v>
   <v>       0.00186715      -0.00000000      -0.00000000 </v>
   <v>       0.00015992      -0.00000000      -0.00000000 </v>
   <v>       0.00038403      -0.00029844      -0.00065501 </v>
   <v>       0.00027182      -0.00000000      -0.00008081 </v>
   <v>       0.00038595      -0.00032220      -0.00059174 </v>
   <v>       0.00038403      -0.00065501      -0.00029844 </v>
   <v>       0.00115322      -0.00060976      -0.00060976 </v>
   <v>       0.00015446      -0.00000000       0.00008182 </v>
   <v>      -0.00008363      -0.00000599       0.00000599 </v>
   <v>       0.00027182      -0.00008081      -0.00000000 </v>
   <v>       0.00015446       0.00008182      -0.00000000 </v>
   <v>      -0.00035100      -0.00000000      -0.00000000 </v>
   <v>       0.00017132       0.00007306      -0.00000000 </v>
   <v>       0.00038595      -0.00059174      -0.00032220 </v>
   <v>      -0.00008363       0.00000599      -0.00000599 </v>
   <v>       0.00017132      -0.00000000       0.00007306 </v>
   <v>       0.00107821      -0.00062771      -0.00062771 </v>
   <v>       0.00044123       0.00004957       0.00004957 </v>
   <v>       0.01034539      -0.00000000      -0.01102862 </v>
   <v>       0.00115322       0.00060976      -0.00060976 </v>
   <v>       0.00038595       0.00059174       0.00032220 </v>
   <v>       0.01034539      -0.01102862      -0.00000000 </v>
   <v>       0.00189254      -0.00000000      -0.00000000 </v>
   <v>       0.00015446      -0.00008182      -0.00000000 </v>
   <v>      -0.00049987      -0.00002492      -0.00000000 </v>
   <v>       0.00115322      -0.00060976       0.00060976 </v>
   <v>       0.00015446      -0.00000000      -0.00008182 </v>
   <v>      -0.00008363      -0.00000599      -0.00000599 </v>
   <v>       0.00038403      -0.00065501       0.00029844 </v>
   <v>       0.00038595       0.00032220       0.00059174 </v>
   <v>      -0.00049987      -0.00000000      -0.00002492 </v>
   <v>       0.00038403       0.00029844      -0.00065501 </v>
   <v>       0.00036010      -0.00000000      -0.00000000 </v>
  </varray>
  <varray name="stress" >
   <v>    -150.72954709       0.00000000       0.00000000 </v>
   <v>       0.00000000    -150.73918980       0.00000000 </v>
   <v>      -0.00000000       0.00000000    -150.73918980 </v>
  </varray>
  <energy>
   <i name="e_fr_energy">   -367.20194433 </i>
   <i name="e_wo_entrp">   -367.19314996 </i>
   <i name="e_0_energy">     -0.02638311 </i>
  </energy>
  <kpoints>
   <generation param="Gamma">
    <v type="int" name="divisions">       3        3        3 </v>
    <v name="usershift">      0.00000000       0.00000000       0.00000000 </v>
    <v name="genvec1">      0.33333333       0.00000000       0.00000000 </v>
    <v name="genvec2">      0.00000000       0.33333333       0.00000000 </v>
    <v name="genvec3">      0.00000000       0.00000000       0.33333333 </v>
    <v name="shift">      0.00000000       0.00000000       0.00000000 </v>
   </generation>
   <varray name="kpointlist" >
    <v>       0.00000000       0.00000000       0.00000000 </v>
    <v>       0.33333333       0.00000000       0.00000000 </v>
    <v>       0.33333333       0.33333333       0.00000000 </v>
    <v>      -0.33333333       0.33333333       0.00000000 </v>
    <v>       0.00000000       0.33333333       0.33333333 </v>
    <v>      -0.33333333       0.33333333       0.33333333 </v>
   </varray>
   <varray name="weights" >
    <v>       0.03703704 </v>
    <v>       0.29629630 </v>
    <v>       0.14814815 </v>
    <v>       0.29629630 </v>
    <v>       0.07407407 </v>
    <v>       0.14814815 </v>
   </varray>
  </kpoints>
  <time name="totalsc"> 3757.17 3754.10</time>
 </calculation>
 <calculation>
  <scstep>
   <time name="dav">  269.47  269.25</time>
   <time name="total">  280.57  280.34</time>
   <energy>
    <i name="alphaZ">   9010.57505126 </i>
    <i name="ewald">-148962.03763724 </i>
    <i name="hartreedc"> -62219.91339118 </i>
    <i name="XCdc">   5611.86906773 </i>
    <i name="pawpsdc"> 170968.84713128 </i>
    <i name="pawaedc">-180016.38812913 </i>
    <i name="eentropy">     -0.02631752 </i>
    <i name="bandstr"> -18776.43051891 </i>
    <i name="atom"> 224016.65216645 </i>
    <i name="e_fr_energy">   -366.85257727 </i>
    <i name="e_wo_entrp">   -366.82625975 </i>
    <i name="e_0_energy">   -366.84380476 </i>
   </energy>
  </scstep>
  <scstep>
   <time name="dav">  219.66  219.48</time>
   <time name="total">  230.74  230.55</time>
   <energy>
    <i name="e_fr_energy">   -367.21696186 </i>
    <i name="e_wo_entrp">   -367.19069561 </i>
    <i name="e_0_energy">   -367.20820644 </i>
   </energy>
  </scstep>
  <scstep>
   <time name="dav">  256.29  256.08</time>
   <time name="total">  267.35  267.13</time>
   <energy>
    <i name="e_fr_energy">   -367.20766031 </i>
    <i name="e_wo_entrp">   -367.18097759 </i>
    <i name="e_0_energy">   -367.19876607 </i>
   </energy>
  </scstep>
  <scstep>
   <time name="dav">  254.62  254.41</time>
   <time name="total">  265.71  265.50</time>
   <energy>
    <i name="e_fr_energy">   -367.21438058 </i>
    <i name="e_wo_entrp">   -367.18787328 </i>
    <i name="e_0_energy">   -367.20554481 </i>
   </energy>
  </scstep>
  <scstep>
   <time name="dav">  228.80  228.61</time>
   <time name="total">  239.84  239.64</time>
   <energy>
    <i name="e_fr_energy">   -367.20284838 </i>
    <i name="e_wo_entrp">   -367.17640706 </i>
    <i name="e_0_energy">   -367.19403461 </i>
   </energy>
  </scstep>
  <scstep>
   <time name="dav">  262.30  262.09</time>
   <time name="total">  273.39  273.17</time>
   <energy>
    <i name="e_fr_energy">   -367.20262832 </i>
    <i name="e_wo_entrp">   -367.17619982 </i>
    <i name="e_0_energy">   -367.19381882 </i>
   </energy>
  </scstep>
  <scstep>
   <time name="dav">  237.76  237.56</time>
   <time name="total">  248.82  248.61</time>
   <energy>
    <i name="e_fr_energy">   -367.20248984 </i>
    <i name="e_wo_entrp">   -367.17607448 </i>
    <i name="e_0_energy">   -367.19368472 </i>
   </energy>
  </scstep>
  <scstep>
   <time name="dav">  235.45  235.26</time>
   <time name="total">  246.56  246.36</time>
   <energy>
    <i name="e_fr_energy">   -367.20232160 </i>
    <i name="e_wo_entrp">   -367.17592110 </i>
    <i name="e_0_energy">   -367.19352143 </i>
   </energy>
  </scstep>
  <scstep>
   <time name="dav">  232.61  232.42</time>
   <time name="total">  243.64  243.44</time>
   <energy>
    <i name="e_fr_energy">   -367.20242075 </i>
    <i name="e_wo_entrp">   -367.17603062 </i>
    <i name="e_0_energy">   -367.19362404 </i>
   </energy>
  </scstep>
  <scstep>
   <time name="dav">  268.87  268.65</time>
   <time name="total">  279.96  279.73</time>
   <energy>
    <i name="e_fr_energy">   -367.20200035 </i>
    <i name="e_wo_entrp">   -367.17563031 </i>
    <i name="e_0_energy">   -367.19321034 </i>
   </energy>
  </scstep>
  <scstep>
   <time name="dav">  270.07  269.85</time>
   <time name="total">  281.13  280.90</time>
   <energy>
    <i name="e_fr_energy">   -367.20194968 </i>
    <i name="e_wo_entrp">   -367.17557862 </i>
    <i name="e_0_energy">   -367.19315933 </i>
   </energy>
  </scstep>
  <scstep>
   <time name="dav">  277.40  277.17</time>
   <time name="total">  288.46  288.22</time>
   <energy>
    <i name="e_fr_energy">   -367.20196461 </i>
    <i name="e_wo_entrp">   -367.17558818 </i>
    <i name="e_0_energy">   -367.19317246 </i>
   </energy>
  </scstep>
  <scstep>
   <time name="dav">  235.17  234.98</time>
   <time name="total">  246.25  246.04</time>
   <energy>
    <i name="e_fr_energy">   -367.20194393 </i>
    <i name="e_wo_entrp">   -367.17556382 </i>
    <i name="e_0_energy">   -367.19315056 </i>
   </energy>
  </scstep>
  <scstep>
   <time name="dav">  250.70  250.50</time>
   <time name="total">  261.79  261.57</time>
   <energy>
    <i name="e_fr_energy">   -367.20195015 </i>
    <i name="e_wo_entrp">   -367.17556973 </i>
    <i name="e_0_energy">   -367.19315668 </i>
   </energy>
  </scstep>
  <scstep>
   <time name="dav">  210.60  210.43</time>
   <time name="total">  221.64  221.46</time>
   <energy>
    <i name="e_fr_energy">   -367.20194423 </i>
    <i name="e_wo_entrp">   -367.17556178 </i>
    <i name="e_0_energy">   -367.19315008 </i>
   </energy>
  </scstep>
  <scstep>
   <time name="dav">  139.43  139.32</time>
   <time name="total">  140.02  139.90</time>
   <energy>
    <i name="alphaZ">   9010.57505126 </i>
    <i name="ewald">-148962.03763724 </i>
    <i name="hartreedc"> -62219.87205661 </i>
    <i name="XCdc">   5611.86669148 </i>
    <i name="pawpsdc"> 170968.85551765 </i>
    <i name="pawaedc">-180016.39802494 </i>
    <i name="eentropy">     -0.02638211 </i>
    <i name="bandstr"> -18776.81727032 </i>
    <i name="atom"> 224016.65216645 </i>
    <i name="e_fr_energy">   -367.20194439 </i>
    <i name="e_wo_entrp">   -367.17556228 </i>
    <i name="e_0_energy">   -367.19315036 </i>
   </energy>
  </scstep>
  <structure>
   <crystal>
    <varray name="basis" >
     <v>       0.00000000       7.26150000       7.26150000 </v>
     <v>       7.26150000       0.00000000       7.26150000 </v>
     <v>       7.26150000       7.26150000       0.00000000 </v>
    </varray>
    <i name="volume">    765.78881842 </i>
    <varray name="rec_basis" >
     <v>      -0.06885630       0.06885630       0.06885630 </v>
     <v>       0.06885630      -0.06885630       0.06885630 </v>
     <v>       0.06885630       0.06885630      -0.06885630 </v>
    </varray>
   </crystal>
   <varray name="positions" >
    <v>       0.00103284      -0.00103284      -0.00103284 </v>
    <v>       0.00000000       0.00000000       0.25000000 </v>
    <v>       0.00000000       0.00000000       0.50000000 </v>
    <v>       0.00000000       0.00000000       0.75000000 </v>
    <v>       0.00000000       0.25000000       0.00000000 </v>
    <v>       0.00000000       0.25000000       0.25000000 </v>
    <v>       0.00000000       0.25000000       0.50000000 </v>
    <v>       0.00000000       0.25000000       0.75000000 </v>
    <v>       0.00000000       0.50000000       0.00000000 </v>
    <v>       0.00000000       0.50000000       0.25000000 </v>
    <v>       0.00000000       0.50000000       0.50000000 </v>
    <v>       0.00000000       0.50000000       0.75000000 </v>
    <v>       0.00000000       0.75000000       0.00000000 </v>
    <v>       0.00000000       0.75000000       0.25000000 </v>
    <v>       0.00000000       0.75000000       0.50000000 </v>
    <v>       0.00000000       0.75000000       0.75000000 </v>
    <v>       0.25000000       0.00000000       0.00000000 </v>
    <v>       0.25000000       0.00000000       0.25000000 </v>
    <v>       0.25000000       0.00000000       0.50000000 </v>
    <v>       0.25000000       0.00000000       0.75000000 </v>
    <v>       0.25000000       0.25000000       0.00000000 </v>
    <v>       0.25000000       0.25000000       0.25000000 </v>
    <v>       0.25000000       0.25000000       0.50000000 </v>
    <v>       0.25000000       0.25000000       0.75000000 </v>
    <v>       0.25000000       0.50000000       0.00000000 </v>
    <v>       0.25000000       0.50000000       0.25000000 </v>
    <v>       0.25000000       0.50000000       0.50000000 </v>
    <v>       0.25000000       0.50000000       0.75000000 </v>
    <v>       0.25000000       0.75000000       0.00000000 </v>
    <v>       0.25000000       0.75000000       0.25000000 </v>
    <v>       0.25000000       0.75000000       0.50000000 </v>
    <v>       0.25000000       0.75000000       0.75000000 </v>
    <v>       0.50000000       0.00000000       0.00000000 </v>
    <v>       0.50000000       0.00000000       0.25000000 </v>
    <v>       0.50000000       0.00000000       0.50000000 </v>
    <v>       0.50000000       0.00000000       0.75000000 </v>
    <v>       0.50000000       0.25000000       0.00000000 </v>
    <v>       0.50000000       0.25000000       0.25000000 </v>
    <v>       0.50000000       0.25000000       0.50000000 </v>
    <v>       0.50000000       0.25000000       0.75000000 </v>
    <v>       0.50000000       0.50000000       0.00000000 </v>
    <v>       0.50000000       0.50000000       0.25000000 </v>
    <v>       0.50000000       0.50000000       0.50000000 </v>
    <v>       0.50000000       0.50000000       0.75000000 </v>
    <v>       0.50000000       0.75000000       0.00000000 </v>
    <v>       0.50000000       0.75000000       0.25000000 </v>
    <v>       0.50000000       0.75000000       0.50000000 </v>
    <v>       0.50000000       0.75000000       0.75000000 </v>
    <v>       0.75000000       0.00000000       0.00000000 </v>
    <v>       0.75000000       0.00000000       0.25000000 </v>
    <v>       0.75000000       0.00000000       0.50000000 </v>
    <v>       0.75000000       0.00000000       0.75000000 </v>
    <v>       0.75000000       0.25000000       0.00000000 </v>
    <v>       0.75000000       0.25000000       0.25000000 </v>
    <v>       0.75000000       0.25000000       0.50000000 </v>
    <v>       0.75000000       0.25000000       0.75000000 </v>
    <v>       0.75000000       0.50000000       0.00000000 </v>
    <v>       0.75000000       0.50000000       0.25000000 </v>
    <v>       0.75000000       0.50000000       0.50000000 </v>
    <v>       0.75000000       0.50000000       0.75000000 </v>
    <v>       0.75000000       0.75000000       0.00000000 </v>
    <v>       0.75000000       0.75000000       0.25000000 </v>
    <v>       0.75000000       0.75000000       0.50000000 </v>
    <v>       0.75000000       0.75000000       0.75000000 </v>
   </varray>
  </structure>
  <varray name="forces" >
   <v>       0.10175658       0.00000000       0.00000000 </v>
   <v>      -0.00998114      -0.01061688       0.00000000 </v>
   <v>      -0.00032460      -0.00003257       0.00000000 </v>
   <v>      -0.01055129      -0.01133760       0.00000000 </v>
   <v>      -0.00998114       0.00000000      -0.01061688 </v>
   <v>      -0.00113900      -0.00055439      -0.00055439 </v>
   <v>      -0.00039140      -0.00062052       0.00031063 </v>
   <v>      -0.00022045       0.00007313      -0.00007313 </v>
   <v>      -0.00032460       0.00000000      -0.00003257 </v>
   <v>      -0.00039140       0.00031063      -0.00062052 </v>
   <v>      -0.00000423       0.00000000       0.00000000 </v>
   <v>      -0.00032415       0.00025577      -0.00057010 </v>
   <v>      -0.01055129       0.00000000      -0.01133760 </v>
   <v>      -0.00022045      -0.00007313       0.00007313 </v>
   <v>      -0.00032415      -0.00057010       0.00025577 </v>
   <v>      -0.00119337      -0.00062326      -0.00062326 </v>
   <v>      -0.00022045      -0.00007313      -0.00007313 </v>
   <v>      -0.00032415      -0.00057010      -0.00025577 </v>
   <v>      -0.00119337      -0.00062326       0.00062326 </v>
   <v>      -0.01055129       0.00000000       0.01133760 </v>
   <v>      -0.00032415      -0.00025577      -0.00057010 </v>
   <v>      -0.00049901       0.00000000       0.00000000 </v>
   <v>      -0.00039140      -0.00031063       0.00062052 </v>
   <v>       0.00060613       0.00000000       0.00003355 </v>
   <v>      -0.00119337       0.00062326      -0.00062326 </v>
   <v>      -0.00039140       0.00062052      -0.00031063 </v>
   <v>       0.00020790      -0.00001997      -0.00001997 </v>
   <v>      -0.00012163       0.00000000       0.00003304 </v>
   <v>      -0.01055129       0.01133760       0.00000000 </v>
   <v>       0.00060613       0.00003355       0.00000000 </v>
   <v>      -0.00012163       0.00003304       0.00000000 </v>
   <v>      -0.00197942       0.00000000       0.00000000 </v>
   <v>      -0.00000423       0.00000000       0.00000000 </v>
   <v>      -0.00032415       0.00025577       0.00057010 </v>
   <v>      -0.00032460       0.00000000       0.00003257 </v>
   <v>      -0.00039140       0.00031063       0.00062052 </v>
   <v>      -0.00032415       0.00057010       0.00025577 </v>
   <v>      -0.00113900       0.00055439       0.00055439 </v>
   <v>      -0.00016460       0.00000000      -0.00008914 </v>
   <v>       0.00020790       0.00001997      -0.00001997 </v>
   <v>      -0.00032460       0.00003257       0.00000000 </v>
   <v>      -0.00016460      -0.00008914       0.00000000 </v>
   <v>       0.00045697       0.00000000       0.00000000 </v>
   <v>      -0.00012163      -0.00003304       0.00000000 </v>
   <v>      -0.00039140       0.00062052       0.00031063 </v>
   <v>       0.00020790      -0.00001997       0.00001997 </v>
   <v>      -0.00012163       0.00000000      -0.00003304 </v>
   <v>      -0.00119337       0.00062326       0.00062326 </v>
   <v>      -0.00022045       0.00007313       0.00007313 </v>
   <v>      -0.00998114       0.00000000       0.01061688 </v>
   <v>      -0.00113900      -0.00055439       0.00055439 </v>
   <v>      -0.00039140      -0.00062052      -0.00031063 </v>
   <v>      -0.00998114       0.01061688       0.00000000 </v>
   <v>      -0.00197517       0.00000000       0.00000000 </v>
   <v>      -0.00016460       0.00008914       0.00000000 </v>
   <v>       0.00060613      -0.00003355       0.00000000 </v>
   <v>      -0.00113900       0.00055439      -0.00055439 </v>
   <v>      -0.00016460       0.00000000       0.00008914 </v>
   <v>       0.00020790       0.00001997       0.00001997 </v>
   <v>      -0.00032415       0.00057010      -0.00025577 </v>
   <v>      -0.00039140      -0.00031063      -0.00062052 </v>
   <v>       0.00060613       0.00000000      -0.00003355 </v>
   <v>      -0.00032415      -0.00025577       0.00057010 </v>
   <v>      -0.00049901       0.00000000       0.00000000 </v>
  </varray>
  <varray name="stress" >
   <v>    -150.76458491       0.00000000       0.00000000 </v>
   <v>      -0.00000000    -150.77069655       0.00000000 </v>
   <v>       0.00000000       0.00000000    -150.77069655 </v>
  </varray>
  <energy>
   <i name="e_fr_energy">   -367.20194439 </i>
   <i name="e_wo_entrp">   -367.19315036 </i>
   <i name="e_0_energy">     -0.02638211 </i>
  </energy>
  <dynmat>
   <varray name="hessian" >
    <v>      -0.11555441       0.00000000       0.00000000       0.01153477       0.01228894       0.00000000       0.00033874       0.00006440      -0.00000000       0.01153477       0.01228894      -0.00000000       0.01153477      -0.00000000       0.01228894       0.00129602       0.00068900       0.00068900       0.00042186       0.00068900      -0.00033709       0.00037580       0.00000000      -0.00000000       0.00033874       0.00000000       0.00006440       0.00042186      -0.00033709       0.00068900       0.00009323      -0.00000000       0.00000000       0.00042186      -0.00033709       0.00068900       0.01153477       0.00000000       0.01228894       0.00037580       0.00000000       0.00000000       0.00042186       0.00068900      -0.00033709       0.00129602       0.00068900       0.00068900       0.00037580      -0.00000000       0.00000000       0.00042186       0.00068900       0.00033709       0.00129602       0.00068900      -0.00068900       0.01153477      -0.00000000      -0.01228894       0.00042186       0.00033709       0.00068900       0.00048794       0.00000000       0.00000000       0.00042186       0.00033709      -0.00068900      -0.00062816      -0.00000000      -0.00000000       0.00129602      -0.00068900       0.00068900       0.00042186      -0.00068900       0.00033709      -0.00016558      -0.00000000       0.00000000       0.00017380       0.00000000      -0.00007868       0.01153477      -0.01228894       0.00000000      -0.00062816       0.00000000       0.00000000       0.00017380      -0.00007868       0.00000000       0.00219068      -0.00000000      -0.00000000       0.00009323       0.00000000       0.00000000       0.00042186      -0.00033709      -0.00068900       0.00033874       0.00000000      -0.00006440       0.00042186      -0.00033709      -0.00068900       0.00042186      -0.00068900      -0.00033709       0.00129602      -0.00068900      -0.00068900       0.00017380       0.00000000       0.00007868      -0.00016558      -0.00000000      -0.00000000       0.00033874      -0.00006440       0.00000000       0.00017380       0.00007868       0.00000000      -0.00045889      -0.00000000       0.00000000       0.00017380       0.00007868      -0.00000000       0.00042186      -0.00068900      -0.00033709      -0.00016558      -0.00000000       0.00000000       0.00017380       0.00000000       0.00007868       0.00129602      -0.00068900      -0.00068900       0.00037580       0.00000000      -0.00000000       0.01153477       0.00000000      -0.01228894       0.00129602       0.00068900      -0.00068900       0.00042186       0.00068900       0.00033709       0.01153477      -0.01228894      -0.00000000       0.00219068       0.00000000       0.00000000       0.00017380      -0.00007868      -0.00000000      -0.00062816       0.00000000       0.00000000       0.00129602      -0.00068900       0.00068900       0.00017380       0.00000000      -0.00007868      -0.00016558      -0.00000000      -0.00000000       0.00042186      -0.00068900       0.00033709       0.00042186       0.00033709       0.00068900      -0.00062816      -0.00000000      -0.00000000       0.00042186       0.00033709      -0.00068900       0.00048794       0.00000000       0.00000000 </v>
    <v>       0.00000000      -0.11555441       0.00000000       0.01228894       0.01153477      -0.00000000       0.00006440       0.00033874      -0.00000000       0.01228894       0.01153477       0.00000000       0.00000000       0.00037580      -0.00000000       0.00068900       0.00042186       0.00033709       0.00068900       0.00129602      -0.00068900       0.00000000       0.01153477      -0.01228894       0.00000000       0.00009323       0.00000000      -0.00033709       0.00042186      -0.00068900      -0.00000000       0.00033874      -0.00006440      -0.00033709       0.00042186      -0.00068900      -0.00000000       0.00037580       0.00000000       0.00000000       0.01153477      -0.01228894       0.00068900       0.00129602      -0.00068900       0.00068900       0.00042186       0.00033709       0.00000000       0.01153477       0.01228894       0.00068900       0.00129602       0.00068900       0.00068900       0.00042186      -0.00033709       0.00000000       0.00037580       0.00000000       0.00033709       0.00042186       0.00068900       0.00000000       0.00048794      -0.00000000       0.00033709       0.00042186      -0.00068900      -0.00000000      -0.00062816      -0.00000000      -0.00068900       0.00042186      -0.00033709      -0.00068900       0.00129602      -0.00068900      -0.00000000       0.00017380       0.00007868       0.00000000      -0.00016558      -0.00000000      -0.01228894       0.01153477       0.00000000       0.00000000       0.00219068      -0.00000000      -0.00007868       0.00017380       0.00000000       0.00000000      -0.00062816       0.00000000       0.00000000       0.00033874       0.00006440      -0.00033709       0.00042186       0.00068900       0.00000000       0.00009323       0.00000000      -0.00033709       0.00042186       0.00068900      -0.00068900       0.00129602       0.00068900      -0.00068900       0.00042186       0.00033709       0.00000000      -0.00016558       0.00000000      -0.00000000       0.00017380      -0.00007868      -0.00006440       0.00033874       0.00000000       0.00007868       0.00017380      -0.00000000      -0.00000000      -0.00045889       0.00000000       0.00007868       0.00017380       0.00000000      -0.00068900       0.00129602       0.00068900      -0.00000000       0.00017380      -0.00007868       0.00000000      -0.00016558       0.00000000      -0.00068900       0.00042186       0.00033709      -0.00000000       0.01153477       0.01228894      -0.00000000       0.00037580       0.00000000       0.00068900       0.00042186      -0.00033709       0.00068900       0.00129602       0.00068900      -0.01228894       0.01153477      -0.00000000      -0.00000000      -0.00062816       0.00000000      -0.00007868       0.00017380       0.00000000       0.00000000       0.00219068      -0.00000000      -0.00068900       0.00042186      -0.00033709       0.00000000      -0.00016558      -0.00000000      -0.00000000       0.00017380       0.00007868      -0.00068900       0.00129602      -0.00068900       0.00033709       0.00042186       0.00068900      -0.00000000      -0.00062816       0.00000000       0.00033709       0.00042186      -0.00068900       0.00000000       0.00048794      -0.00000000 </v>
    <v>       0.00000000       0.00000000      -0.11555441      -0.00000000       0.00000000       0.00037580      -0.00000000      -0.00000000       0.00009323       0.00000000      -0.00000000       0.00037580       0.01228894       0.00000000       0.01153477       0.00068900       0.00033709       0.00042186      -0.00033709      -0.00068900       0.00042186       0.00000000      -0.01228894       0.01153477       0.00006440       0.00000000       0.00033874       0.00068900      -0.00068900       0.00129602       0.00000000      -0.00006440       0.00033874       0.00068900      -0.00068900       0.00129602       0.01228894      -0.00000000       0.01153477      -0.00000000      -0.01228894       0.01153477      -0.00033709      -0.00068900       0.00042186       0.00068900       0.00033709       0.00042186      -0.00000000       0.01228894       0.01153477       0.00033709       0.00068900       0.00042186      -0.00068900      -0.00033709       0.00042186      -0.01228894       0.00000000       0.01153477       0.00068900       0.00068900       0.00129602       0.00000000      -0.00000000       0.00048794      -0.00068900      -0.00068900       0.00129602      -0.00000000       0.00000000       0.00219068       0.00068900      -0.00033709       0.00042186       0.00033709      -0.00068900       0.00042186      -0.00000000       0.00007868       0.00017380      -0.00007868      -0.00000000       0.00017380      -0.00000000      -0.00000000       0.00037580       0.00000000      -0.00000000      -0.00062816      -0.00000000       0.00000000      -0.00016558       0.00000000       0.00000000      -0.00062816       0.00000000       0.00006440       0.00033874      -0.00068900       0.00068900       0.00129602      -0.00006440       0.00000000       0.00033874      -0.00068900       0.00068900       0.00129602      -0.00033709       0.00068900       0.00042186      -0.00068900       0.00033709       0.00042186       0.00007868       0.00000000       0.00017380       0.00000000      -0.00007868       0.00017380       0.00000000       0.00000000       0.00009323      -0.00000000       0.00000000      -0.00016558       0.00000000       0.00000000      -0.00045889       0.00000000      -0.00000000      -0.00016558      -0.00033709       0.00068900       0.00042186      -0.00000000      -0.00007868       0.00017380       0.00007868       0.00000000       0.00017380      -0.00068900       0.00033709       0.00042186       0.00000000       0.01228894       0.01153477      -0.01228894       0.00000000       0.01153477      -0.00068900      -0.00033709       0.00042186       0.00033709       0.00068900       0.00042186       0.00000000       0.00000000       0.00037580      -0.00000000       0.00000000      -0.00062816       0.00000000       0.00000000      -0.00016558       0.00000000      -0.00000000      -0.00062816       0.00068900      -0.00033709       0.00042186      -0.00007868      -0.00000000       0.00017380       0.00000000       0.00007868       0.00017380       0.00033709      -0.00068900       0.00042186       0.00068900       0.00068900       0.00129602      -0.00000000      -0.00000000       0.00219068      -0.00068900      -0.00068900       0.00129602       0.00000000      -0.00000000       0.00048794 </v>
[...]
       <r>    21.1850     0.0000   648.0000 </r>
       <r>    21.4665     0.0000   648.0000 </r>
       <r>    21.7480     0.0000   648.0000 </r>
       <r>    22.0295     0.0000   648.0000 </r>
       <r>    22.3111     0.0000   648.0000 </r>
       <r>    22.5926     0.0000   648.0000 </r>
       <r>    22.8741     0.0000   648.0000 </r>
       <r>    23.1556     0.0000   648.0000 </r>
       <r>    23.4371     0.0000   648.0000 </r>
      </set>
      <set comment="spin 2">
       <r>   -61.0189     0.0000     0.0000 </r>
       <r>   -60.7374     0.0000     0.0000 </r>
       <r>   -60.4559     0.0000     0.0000 </r>
       <r>   -60.1744     0.0000     0.0000 </r>
       <r>   -59.8929     0.0000     0.0000 </r>
       <r>   -59.6113     0.0000     0.0000 </r>
       <r>   -59.3298     0.0000     0.0000 </r>
       <r>   -59.0483     0.0000     0.0000 </r>
       <r>   -58.7668     0.0000     0.0000 </r>
       <r>   -58.4853     0.0000     0.0000 </r>
       <r>   -58.2037     0.0000     0.0000 </r>
       <r>   -57.9222    -0.0000    -0.0000 </r>
       <r>   -57.6407    -0.0000    -0.0000 </r>
       <r>   -57.3592    -0.0000    -0.0000 </r>
       <r>   -57.0777    -0.0000    -0.0000 </r>
       <r>   -56.7961    -0.0721    -0.0203 </r>
       <r>   -56.5146   -13.3377    -3.7751 </r>
       <r>   -56.2331   210.8813    55.5922 </r>
       <r>   -55.9516   501.8063   196.8608 </r>
       <r>   -55.6701   -16.3550   192.2566 </r>
       <r>   -55.3885    -0.9112   192.0001 </r>
       <r>   -55.1070    -0.0003   192.0000 </r>
       <r>   -54.8255    -0.0000   192.0000 </r>
       <r>   -54.5440     0.0000   192.0000 </r>
       <r>   -54.2624     0.0000   192.0000 </r>
       <r>   -53.9809     0.0000   192.0000 </r>
       <r>   -53.6994     0.0000   192.0000 </r>
       <r>   -53.4179     0.0000   192.0000 </r>
       <r>   -53.1364     0.0000   192.0000 </r>
       <r>   -52.8548     0.0000   192.0000 </r>
       <r>   -52.5733     0.0000   192.0000 </r>
       <r>   -52.2918     0.0000   192.0000 </r>
       <r>   -52.0103     0.0000   192.0000 </r>
       <r>   -51.7288     0.0000   192.0000 </r>
       <r>   -51.4472     0.0000   192.0000 </r>
       <r>   -51.1657     0.0000   192.0000 </r>
       <r>   -50.8842     0.0000   192.0000 </r>
       <r>   -50.6027     0.0000   192.0000 </r>
       <r>   -50.3212     0.0000   192.0000 </r>
       <r>   -50.0396     0.0000   192.0000 </r>
       <r>   -49.7581     0.0000   192.0000 </r>
       <r>   -49.4766     0.0000   192.0000 </r>
       <r>   -49.1951     0.0000   192.0000 </r>
       <r>   -48.9136     0.0000   192.0000 </r>
       <r>   -48.6320     0.0000   192.0000 </r>
       <r>   -48.3505     0.0000   192.0000 </r>
       <r>   -48.0690     0.0000   192.0000 </r>
       <r>   -47.7875     0.0000   192.0000 </r>
       <r>   -47.5060     0.0000   192.0000 </r>
       <r>   -47.2244     0.0000   192.0000 </r>
       <r>   -46.9429     0.0000   192.0000 </r>
       <r>   -46.6614     0.0000   192.0000 </r>
       <r>   -46.3799     0.0000   192.0000 </r>
       <r>   -46.0984     0.0000   192.0000 </r>
       <r>   -45.8168     0.0000   192.0000 </r>
       <r>   -45.5353     0.0000   192.0000 </r>
       <r>   -45.2538     0.0000   192.0000 </r>
       <r>   -44.9723     0.0000   192.0000 </r>
       <r>   -44.6908     0.0000   192.0000 </r>
       <r>   -44.4092     0.0000   192.0000 </r>
       <r>   -44.1277     0.0000   192.0000 </r>
       <r>   -43.8462     0.0000   192.0000 </r>
       <r>   -43.5647     0.0000   192.0000 </r>
       <r>   -43.2832     0.0000   192.0000 </r>
       <r>   -43.0016     0.0000   192.0000 </r>
       <r>   -42.7201     0.0000   192.0000 </r>
       <r>   -42.4386     0.0000   192.0000 </r>
       <r>   -42.1571     0.0000   192.0000 </r>
       <r>   -41.8756     0.0000   192.0000 </r>
       <r>   -41.5940     0.0000   192.0000 </r>
       <r>   -41.3125     0.0000   192.0000 </r>
       <r>   -41.0310     0.0000   192.0000 </r>
       <r>   -40.7495     0.0000   192.0000 </r>
       <r>   -40.4680     0.0000   192.0000 </r>
       <r>   -40.1864     0.0000   192.0000 </r>
       <r>   -39.9049     0.0000   192.0000 </r>
       <r>   -39.6234     0.0000   192.0000 </r>
       <r>   -39.3419     0.0000   192.0000 </r>
       <r>   -39.0604     0.0000   192.0000 </r>
       <r>   -38.7788     0.0000   192.0000 </r>
       <r>   -38.4973     0.0000   192.0000 </r>
       <r>   -38.2158     0.0000   192.0000 </r>
       <r>   -37.9343     0.0000   192.0000 </r>
       <r>   -37.6528     0.0000   192.0000 </r>
       <r>   -37.3712     0.0000   192.0000 </r>
       <r>   -37.0897     0.0000   192.0000 </r>
       <r>   -36.8082     0.0000   192.0000 </r>
       <r>   -36.5267     0.0000   192.0000 </r>
       <r>   -36.2452     0.0000   192.0000 </r>
       <r>   -35.9636     0.0000   192.0000 </r>
       <r>   -35.6821     0.0000   192.0000 </r>
       <r>   -35.4006     0.0000   192.0000 </r>
       <r>   -35.1191     0.0000   192.0000 </r>
       <r>   -34.8376     0.0000   192.0000 </r>
       <r>   -34.5560     0.0000   192.0000 </r>
       <r>   -34.2745     0.0000   192.0000 </r>
       <r>   -33.9930     0.0000   192.0000 </r>
       <r>   -33.7115     0.0000   192.0000 </r>
       <r>   -33.4300     0.0000   192.0000 </r>
       <r>   -33.1484     0.0000   192.0000 </r>
       <r>   -32.8669     0.0000   192.0000 </r>
       <r>   -32.5854     0.0000   192.0000 </r>
       <r>   -32.3039     0.0000   192.0000 </r>
       <r>   -32.0223     0.0000   192.0000 </r>
       <r>   -31.7408     0.0000   192.0000 </r>
       <r>   -31.4593     0.0000   192.0000 </r>
       <r>   -31.1778     0.0000   192.0000 </r>
       <r>   -30.8963     0.0000   192.0000 </r>
       <r>   -30.6147     0.0000   192.0000 </r>
       <r>   -30.3332     0.0000   192.0000 </r>
       <r>   -30.0517     0.0000   192.0000 </r>
       <r>   -29.7702     0.0000   192.0000 </r>
       <r>   -29.4887     0.0000   192.0000 </r>
       <r>   -29.2071     0.0000   192.0000 </r>
       <r>   -28.9256     0.0000   192.0000 </r>
       <r>   -28.6441     0.0000   192.0000 </r>
       <r>   -28.3626     0.0000   192.0000 </r>
       <r>   -28.0811     0.0000   192.0000 </r>
       <r>   -27.7995     0.0000   192.0000 </r>
       <r>   -27.5180     0.0000   192.0000 </r>
       <r>   -27.2365     0.0000   192.0000 </r>
       <r>   -26.9550     0.0000   192.0000 </r>
       <r>   -26.6735     0.0000   192.0000 </r>
       <r>   -26.3919     0.0000   192.0000 </r>
       <r>   -26.1104     0.0000   192.0000 </r>
       <r>   -25.8289     0.0000   192.0000 </r>
       <r>   -25.5474     0.0000   192.0000 </r>
       <r>   -25.2659     0.0000   192.0000 </r>
       <r>   -24.9843     0.0000   192.0000 </r>
       <r>   -24.7028     0.0000   192.0000 </r>
       <r>   -24.4213     0.0000   192.0000 </r>
       <r>   -24.1398     0.0000   192.0000 </r>
       <r>   -23.8583     0.0000   192.0000 </r>
       <r>   -23.5767     0.0000   192.0000 </r>
       <r>   -23.2952     0.0000   192.0000 </r>
       <r>   -23.0137     0.0000   192.0000 </r>
       <r>   -22.7322     0.0000   192.0000 </r>
       <r>   -22.4507     0.0000   192.0000 </r>
       <r>   -22.1691     0.0000   192.0000 </r>
       <r>   -21.8876     0.0000   192.0000 </r>
       <r>   -21.6061     0.0000   192.0000 </r>
       <r>   -21.3246     0.0000   192.0000 </r>
       <r>   -21.0431     0.0000   192.0000 </r>
       <r>   -20.7615     0.0000   192.0000 </r>
       <r>   -20.4800     0.0000   192.0000 </r>
       <r>   -20.1985     0.0000   192.0000 </r>
       <r>   -19.9170     0.0000   192.0000 </r>
       <r>   -19.6355     0.0000   192.0000 </r>
       <r>   -19.3539     0.0000   192.0000 </r>
       <r>   -19.0724     0.0000   192.0000 </r>
       <r>   -18.7909     0.0000   192.0000 </r>
       <r>   -18.5094     0.0000   192.0000 </r>
       <r>   -18.2279     0.0000   192.0000 </r>
       <r>   -17.9463     0.0000   192.0000 </r>
       <r>   -17.6648     0.0000   192.0000 </r>
       <r>   -17.3833     0.0000   192.0000 </r>
       <r>   -17.1018     0.0000   192.0000 </r>
       <r>   -16.8203     0.0000   192.0000 </r>
       <r>   -16.5387     0.0000   192.0000 </r>
       <r>   -16.2572     0.0000   192.0000 </r>
       <r>   -15.9757     0.0000   192.0000 </r>
       <r>   -15.6942     0.0000   192.0000 </r>
       <r>   -15.4127     0.0000   192.0000 </r>
       <r>   -15.1311     0.0000   192.0000 </r>
       <r>   -14.8496     0.0000   192.0000 </r>
       <r>   -14.5681     0.0000   192.0000 </r>
       <r>   -14.2866     0.0000   192.0000 </r>
       <r>   -14.0051     0.0000   192.0000 </r>
       <r>   -13.7235     0.0000   192.0000 </r>
       <r>   -13.4420     0.0000   192.0000 </r>
       <r>   -13.1605     0.0000   192.0000 </r>
       <r>   -12.8790     0.0000   192.0000 </r>
       <r>   -12.5975     0.0000   192.0000 </r>
       <r>   -12.3159     0.0000   192.0000 </r>
       <r>   -12.0344     0.0000   192.0000 </r>
       <r>   -11.7529     0.0000   192.0000 </r>
       <r>   -11.4714     0.0000   192.0000 </r>
       <r>   -11.1899     0.0000   192.0000 </r>
       <r>   -10.9083     0.0000   192.0000 </r>
       <r>   -10.6268     0.0000   192.0000 </r>
       <r>   -10.3453     0.0000   192.0000 </r>
       <r>   -10.0638     0.0000   192.0000 </r>
       <r>    -9.7822     0.0000   192.0000 </r>
       <r>    -9.5007     0.0000   192.0000 </r>
       <r>    -9.2192     0.0000   192.0000 </r>
       <r>    -8.9377     0.0000   192.0000 </r>
       <r>    -8.6562     0.0000   192.0000 </r>
       <r>    -8.3746     0.0000   192.0000 </r>
       <r>    -8.0931     0.0000   192.0000 </r>
       <r>    -7.8116     0.0000   192.0000 </r>
       <r>    -7.5301     0.0000   192.0000 </r>
       <r>    -7.2486     0.0000   192.0000 </r>
       <r>    -6.9670     0.0000   192.0000 </r>
       <r>    -6.6855     0.0000   192.0000 </r>
       <r>    -6.4040     0.0000   192.0000 </r>
       <r>    -6.1225     0.0000   192.0000 </r>
       <r>    -5.8410     0.0000   192.0000 </r>
       <r>    -5.5594     0.0000   192.0000 </r>
       <r>    -5.2779     0.0000   192.0000 </r>
       <r>    -4.9964     0.0000   192.0000 </r>
       <r>    -4.7149     0.0000   192.0000 </r>
       <r>    -4.4334     0.0000   192.0000 </r>
       <r>    -4.1518     0.0000   192.0000 </r>
       <r>    -3.8703     0.0000   192.0000 </r>
       <r>    -3.5888    -0.0000   192.0000 </r>
       <r>    -3.3073    -0.0000   192.0000 </r>
       <r>    -3.0258    -0.0000   192.0000 </r>
       <r>    -2.7442    -0.0000   192.0000 </r>
       <r>    -2.4627    -0.0000   192.0000 </r>
       <r>    -2.1812    -0.0004   191.9999 </r>
       <r>    -1.8997    -0.0064   191.9981 </r>
       <r>    -1.6182     0.1289   192.0344 </r>
       <r>    -1.3366     1.5231   192.4632 </r>
       <r>    -1.0551     1.0220   192.7509 </r>
       <r>    -0.7736     3.3807   193.7026 </r>
       <r>    -0.4921     1.8669   194.2282 </r>
       <r>    -0.2106     2.1916   194.8452 </r>
       <r>     0.0710     5.0504   196.2670 </r>
       <r>     0.3525     3.8699   197.3564 </r>
       <r>     0.6340     3.2559   198.2730 </r>
       <r>     0.9155     3.1279   199.1536 </r>
       <r>     1.1970     8.9482   201.6727 </r>
       <r>     1.4786     5.2416   203.1483 </r>
       <r>     1.7601     4.7092   204.4740 </r>
       <r>     2.0416     6.3594   206.2643 </r>
       <r>     2.3231    13.2012   209.9807 </r>
       <r>     2.6046    11.4167   213.1948 </r>
       <r>     2.8862    13.0599   216.8714 </r>
       <r>     3.1677    31.4189   225.7164 </r>
       <r>     3.4492    35.5011   235.7107 </r>
       <r>     3.7307    36.6632   246.0322 </r>
       <r>     4.0122    58.2693   262.4361 </r>
       <r>     4.2938    60.5973   279.4955 </r>
       <r>     4.5753    58.2200   295.8856 </r>
       <r>     4.8568    73.0918   316.4625 </r>
       <r>     5.1383    90.3670   341.9026 </r>
       <r>     5.4198   104.0867   371.2051 </r>
       <r>     5.7014    90.9214   396.8014 </r>
       <r>     5.9829    77.1978   418.5341 </r>
       <r>     6.2644    96.5700   445.7205 </r>
       <r>     6.5459    81.6730   468.7131 </r>
       <r>     6.8274   103.4321   497.8314 </r>
       <r>     7.1090   100.4760   526.1174 </r>
       <r>     7.3905    29.3592   534.3826 </r>
       <r>     7.6720    11.8158   537.7090 </r>
       <r>     7.9535     5.8302   539.3503 </r>
       <r>     8.2350    15.5002   543.7139 </r>
       <r>     8.5166    12.0341   547.1017 </r>
       <r>     8.7981    10.8967   550.1694 </r>
       <r>     9.0796     5.5922   551.7437 </r>
       <r>     9.3611    10.3122   554.6468 </r>
       <r>     9.6426    11.1614   557.7889 </r>
       <r>     9.9242     9.2020   560.3795 </r>
       <r>    10.2057     7.7441   562.5596 </r>
       <r>    10.4872     5.3920   564.0776 </r>
       <r>    10.7687    11.6051   567.3446 </r>
       <r>    11.0502     1.5218   567.7731 </r>
       <r>    11.3318     1.8739   568.3006 </r>
       <r>    11.6133    11.2996   571.4817 </r>
       <r>    11.8948     4.1127   572.6395 </r>
       <r>    12.1763     2.3354   573.2969 </r>
       <r>    12.4579    13.0643   576.9748 </r>
       <r>    12.7394     9.1815   579.5596 </r>
       <r>    13.0209    11.1412   582.6961 </r>
       <r>    13.3024     5.5507   584.2587 </r>
       <r>    13.5839     8.9654   586.7826 </r>
       <r>    13.8655     9.3199   589.4063 </r>
       <r>    14.1470     9.5301   592.0893 </r>
       <r>    14.4285     9.3420   594.7192 </r>
       <r>    14.7100    12.5986   598.2660 </r>
       <r>    14.9915     4.5238   599.5395 </r>
       <r>    15.2731     7.3331   601.6039 </r>
       <r>    15.5546     9.5875   604.3030 </r>
       <r>    15.8361     7.6693   606.4620 </r>
       <r>    16.1176     9.1081   609.0262 </r>
       <r>    16.3991     9.4440   611.6848 </r>
       <r>    16.6807    12.3955   615.1744 </r>
       <r>    16.9622    18.6354   620.4207 </r>
       <r>    17.2437    12.9133   624.0560 </r>
       <r>    17.5252     8.9113   626.5647 </r>
       <r>    17.8067    14.0576   630.5222 </r>
       <r>    18.0883    13.0127   634.1856 </r>
       <r>    18.3698     5.5931   635.7601 </r>
       <r>    18.6513    16.5125   640.4087 </r>
       <r>    18.9328     8.2914   642.7429 </r>
       <r>    19.2143    11.1464   645.8809 </r>
       <r>    19.4959     4.9922   647.2863 </r>
       <r>    19.7774     2.6742   648.0391 </r>
       <r>    20.0589    -0.1364   648.0007 </r>
       <r>    20.3404    -0.0026   648.0000 </r>
       <r>    20.6219    -0.0000   648.0000 </r>
       <r>    20.9035    -0.0000   648.0000 </r>
       <r>    21.1850     0.0000   648.0000 </r>
       <r>    21.4665     0.0000   648.0000 </r>
       <r>    21.7480     0.0000   648.0000 </r>
       <r>    22.0295     0.0000   648.0000 </r>
       <r>    22.3111     0.0000   648.0000 </r>
       <r>    22.5926     0.0000   648.0000 </r>
       <r>    22.8741     0.0000   648.0000 </r>
       <r>    23.1556     0.0000   648.0000 </r>
       <r>    23.4371     0.0000   648.0000 </r>
      </set>
     </set>
    </array>
   </total>
  </dos>
 </calculation>
 <structure name="finalpos" >
  <crystal>
   <varray name="basis" >
    <v>       0.00000000       7.26150000       7.26150000 </v>
    <v>       7.26150000       0.00000000       7.26150000 </v>
    <v>       7.26150000       7.26150000       0.00000000 </v>
   </varray>
   <i name="volume">    765.78881842 </i>
   <varray name="rec_basis" >
    <v>      -0.06885630       0.06885630       0.06885630 </v>
    <v>       0.06885630      -0.06885630       0.06885630 </v>
    <v>       0.06885630       0.06885630      -0.06885630 </v>
   </varray>
  </crystal>
  <varray name="positions" >
   <v>       0.00103284      -0.00103284      -0.00103284 </v>
   <v>       0.00000000       0.00000000       0.25000000 </v>
   <v>       0.00000000       0.00000000       0.50000000 </v>
   <v>       0.00000000       0.00000000       0.75000000 </v>
   <v>       0.00000000       0.25000000       0.00000000 </v>
   <v>       0.00000000       0.25000000       0.25000000 </v>
   <v>       0.00000000       0.25000000       0.50000000 </v>
   <v>       0.00000000       0.25000000       0.75000000 </v>
   <v>       0.00000000       0.50000000       0.00000000 </v>
   <v>       0.00000000       0.50000000       0.25000000 </v>
   <v>       0.00000000       0.50000000       0.50000000 </v>
   <v>       0.00000000       0.50000000       0.75000000 </v>
   <v>       0.00000000       0.75000000       0.00000000 </v>
   <v>       0.00000000       0.75000000       0.25000000 </v>
   <v>       0.00000000       0.75000000       0.50000000 </v>
   <v>       0.00000000       0.75000000       0.75000000 </v>
   <v>       0.25000000       0.00000000       0.00000000 </v>
   <v>       0.25000000       0.00000000       0.25000000 </v>
   <v>       0.25000000       0.00000000       0.50000000 </v>
   <v>       0.25000000       0.00000000       0.75000000 </v>
   <v>       0.25000000       0.25000000       0.00000000 </v>
   <v>       0.25000000       0.25000000       0.25000000 </v>
   <v>       0.25000000       0.25000000       0.50000000 </v>
   <v>       0.25000000       0.25000000       0.75000000 </v>
   <v>       0.25000000       0.50000000       0.00000000 </v>
   <v>       0.25000000       0.50000000       0.25000000 </v>
   <v>       0.25000000       0.50000000       0.50000000 </v>
   <v>       0.25000000       0.50000000       0.75000000 </v>
   <v>       0.25000000       0.75000000       0.00000000 </v>
   <v>       0.25000000       0.75000000       0.25000000 </v>
   <v>       0.25000000       0.75000000       0.50000000 </v>
   <v>       0.25000000       0.75000000       0.75000000 </v>
   <v>       0.50000000       0.00000000       0.00000000 </v>
   <v>       0.50000000       0.00000000       0.25000000 </v>
   <v>       0.50000000       0.00000000       0.50000000 </v>
   <v>       0.50000000       0.00000000       0.75000000 </v>
   <v>       0.50000000       0.25000000       0.00000000 </v>
   <v>       0.50000000       0.25000000       0.25000000 </v>
   <v>       0.50000000       0.25000000       0.50000000 </v>
   <v>       0.50000000       0.25000000       0.75000000 </v>
   <v>       0.50000000       0.50000000       0.00000000 </v>
   <v>       0.50000000       0.50000000       0.25000000 </v>
   <v>       0.50000000       0.50000000       0.50000000 </v>
   <v>       0.50000000       0.50000000       0.75000000 </v>
   <v>       0.50000000       0.75000000       0.00000000 </v>
   <v>       0.50000000       0.75000000       0.25000000 </v>
   <v>       0.50000000       0.75000000       0.50000000 </v>
   <v>       0.50000000       0.75000000       0.75000000 </v>
   <v>       0.75000000       0.00000000       0.00000000 </v>
   <v>       0.75000000       0.00000000       0.25000000 </v>
   <v>       0.75000000       0.00000000       0.50000000 </v>
   <v>       0.75000000       0.00000000       0.75000000 </v>
   <v>       0.75000000       0.25000000       0.00000000 </v>
   <v>       0.75000000       0.25000000       0.25000000 </v>
   <v>       0.75000000       0.25000000       0.50000000 </v>
   <v>       0.75000000       0.25000000       0.75000000 </v>
   <v>       0.75000000       0.50000000       0.00000000 </v>
   <v>       0.75000000       0.50000000       0.25000000 </v>
   <v>       0.75000000       0.50000000       0.50000000 </v>
   <v>       0.75000000       0.50000000       0.75000000 </v>
   <v>       0.75000000       0.75000000       0.00000000 </v>
   <v>       0.75000000       0.75000000       0.25000000 </v>
   <v>       0.75000000       0.75000000       0.50000000 </v>
   <v>       0.75000000       0.75000000       0.75000000 </v>
  </varray>
 </structure>
</modeling>
