 running on    1 total cores
 distrk:  each k-point on    1 cores,    1 groups
 distr:  one band on    1 cores,    1 groups
 using from now: INCAR     
 vasp.5.4.1 05Feb16 (build Oct 12 2016 17:31:35) complex                        
  
 POSCAR found type information on POSCAR  Ni
 POSCAR found :  1 types and       1 ions
 scaLAPACK will be used
 LDA part: xc-table for Pade appr. of Perdew
 POSCAR, INCAR and KPOINTS ok, starting setup
 FFT: planning ...
 WAVECAR not read
 entering main loop
       N       E                     dE             d eps       ncg     rms          rms(c)
DAV:   1     0.122218940663E+03    0.12222E+03   -0.10736E+04 13968   0.173E+03
DAV:   2    -0.451741647409E+01   -0.12674E+03   -0.11948E+03 13762   0.425E+02
DAV:   3    -0.667032477934E+01   -0.21529E+01   -0.21404E+01 15127   0.669E+01
DAV:   4    -0.668837610641E+01   -0.18051E-01   -0.18052E-01 14459   0.573E+00
DAV:   5    -0.668874620102E+01   -0.37009E-03   -0.37017E-03 15104   0.823E-01    0.839E+00
DAV:   6    -0.607791857180E+01    0.61083E+00   -0.47617E+00 13402   0.564E+01    0.522E+00
DAV:   7    -0.573342167034E+01    0.34450E+00   -0.90682E-01 13537   0.240E+01    0.790E-01
DAV:   8    -0.572160662228E+01    0.11815E-01   -0.75296E-03 18440   0.126E+00    0.258E-01
DAV:   9    -0.572065564461E+01    0.95098E-03   -0.50391E-04 18378   0.380E-01    0.521E-02
DAV:  10    -0.572067126004E+01   -0.15615E-04   -0.31643E-05 14202   0.101E-01    0.177E-02
DAV:  11    -0.572067921320E+01   -0.79532E-05   -0.36876E-06 14188   0.420E-02    0.674E-03
DAV:  12    -0.572067636057E+01    0.28526E-05   -0.36173E-07  7471   0.962E-03    0.111E-03
DAV:  13    -0.572067656364E+01   -0.20307E-06   -0.54178E-08  6721   0.371E-03
   1 F= -.57206766E+01 E0= -.57206766E+01  d E =0.000000E+00  mag=     0.5959
 writing wavefunctions
