       N       E                     dE             d eps       ncg     rms          rms(c)
DAV:   1     0.142330064669E+05    0.14233E+05   -0.53019E+05 11864   0.197E+03
DAV:   2     0.903157205082E+03   -0.13330E+05   -0.12894E+05 10336   0.656E+02
DAV:   3    -0.361485707660E+03   -0.12646E+04   -0.10466E+04 10622   0.210E+02
DAV:   4    -0.426220997120E+03   -0.64735E+02   -0.63393E+02 11056   0.491E+01
DAV:   5    -0.427170357094E+03   -0.94936E+00   -0.94883E+00 10976   0.549E+00    0.671E+01
DAV:   6    -0.384877216578E+03    0.42293E+02   -0.52725E+02 10854   0.676E+01    0.410E+01
DAV:   7    -0.364608325066E+03    0.20269E+02   -0.86404E+01 10800   0.277E+01    0.586E+00
DAV:   8    -0.364509331742E+03    0.98993E-01   -0.79681E-01 10968   0.191E+00    0.256E+00
DAV:   9    -0.364442491822E+03    0.66840E-01   -0.92385E-02 11496   0.566E-01    0.549E-01
DAV:  10    -0.364445769579E+03   -0.32778E-02   -0.74125E-03 11054   0.161E-01    0.211E-01
DAV:  11    -0.364446529461E+03   -0.75988E-03   -0.15072E-03 11008   0.875E-02    0.637E-02
DAV:  12    -0.364446631546E+03   -0.10209E-03   -0.16011E-04 10688   0.248E-02    0.461E-02
DAV:  13    -0.364446618335E+03    0.13211E-04   -0.10361E-05  9724   0.776E-03    0.229E-02
DAV:  14    -0.364446585302E+03    0.33033E-04   -0.12011E-05  9434   0.912E-03    0.372E-03
DAV:  15    -0.364446582162E+03    0.31400E-05   -0.62855E-07  5452   0.186E-03    0.901E-04
DAV:  16    -0.364446582602E+03   -0.44034E-06   -0.78431E-08  5420   0.780E-04
   1 F= -.36444658E+03 E0= -.36435416E+03  d E =-.277276E+00  mag=    38.5503
 Found     1 degrees of freedom:
       N       E                     dE             d eps       ncg     rms          rms(c)
DAV:   1    -0.364118723043E+03    0.32786E+00   -0.94718E+00 20446   0.297E+01    0.977E-01
DAV:   2    -0.364452628483E+03   -0.33391E+00   -0.31821E+00 16172   0.306E+00    0.264E+00
DAV:   3    -0.364445381150E+03    0.72473E-02   -0.14928E-01 19122   0.178E+00    0.124E+00
DAV:   4    -0.364449228701E+03   -0.38476E-02   -0.24304E-02 19080   0.111E+00    0.162E+00
DAV:   5    -0.364441632270E+03    0.75964E-02   -0.80060E-03 16802   0.796E-01    0.387E-01
DAV:   6    -0.364441452125E+03    0.18014E-03   -0.11733E-03 18720   0.190E-01    0.286E-01
DAV:   7    -0.364441244193E+03    0.20793E-03   -0.31686E-04 17224   0.125E-01    0.263E-01
DAV:   8    -0.364441071720E+03    0.17247E-03   -0.30949E-04 17624   0.148E-01    0.239E-01
DAV:   9    -0.364441121207E+03   -0.49487E-04   -0.54514E-04 17696   0.201E-01    0.322E-01
DAV:  10    -0.364440820583E+03    0.30062E-03   -0.54221E-04 20112   0.192E-01    0.179E-01
DAV:  11    -0.364440732631E+03    0.87951E-04   -0.18653E-04 19312   0.956E-02    0.306E-02
DAV:  12    -0.364440740516E+03   -0.78848E-05   -0.43810E-05 19584   0.316E-02    0.393E-02
DAV:  13    -0.364440736573E+03    0.39436E-05   -0.13287E-05 16576   0.282E-02    0.148E-02
DAV:  14    -0.364440738970E+03   -0.23972E-05   -0.34920E-06 11896   0.179E-02    0.297E-02
DAV:  15    -0.364440736572E+03    0.23973E-05   -0.23315E-06  9912   0.156E-02    0.672E-03
DAV:  16    -0.364440736831E+03   -0.25876E-06   -0.79545E-07  8064   0.609E-03
   2 F= -.36444074E+03 E0= -.36434837E+03  d E =-.277111E+00  mag=    38.5511
       N       E                     dE             d eps       ncg     rms          rms(c)
DAV:   1    -0.364301510483E+03    0.13923E+00   -0.45803E+00 20534   0.179E+01    0.349E-01
DAV:   2    -0.364445286896E+03   -0.14378E+00   -0.13998E+00 15940   0.190E+00    0.124E+00
DAV:   3    -0.364445218759E+03    0.68137E-04   -0.48751E-02 19216   0.828E-01    0.340E-01
DAV:   4    -0.364446221017E+03   -0.10023E-02   -0.47220E-03 19520   0.414E-01    0.591E-01
DAV:   5    -0.364445239283E+03    0.98173E-03   -0.13397E-03 16760   0.307E-01    0.144E-01
DAV:   6    -0.364445204428E+03    0.34855E-04   -0.17301E-04 18032   0.841E-02    0.916E-02
DAV:   7    -0.364445180235E+03    0.24193E-04   -0.64630E-05 17888   0.615E-02    0.933E-02
DAV:   8    -0.364445158461E+03    0.21774E-04   -0.79594E-05 17808   0.766E-02    0.866E-02
DAV:   9    -0.364445192039E+03   -0.33578E-04   -0.11005E-04 18064   0.926E-02    0.139E-01
DAV:  10    -0.364445138288E+03    0.53751E-04   -0.88847E-05 17888   0.788E-02    0.626E-02
DAV:  11    -0.364445128107E+03    0.10181E-04   -0.23367E-05 19600   0.332E-02    0.104E-02
DAV:  12    -0.364445129161E+03   -0.10546E-05   -0.49893E-06 15424   0.128E-02    0.164E-02
DAV:  13    -0.364445128306E+03    0.85513E-06   -0.18005E-06  8360   0.111E-02
   3 F= -.36444513E+03 E0= -.36435272E+03  d E =-.277226E+00  mag=    38.5505
       N       E                     dE             d eps       ncg     rms          rms(c)
DAV:   1    -0.364157918756E+03    0.28721E+00   -0.84000E+00 20620   0.261E+01    0.896E-01
DAV:   2    -0.364454847006E+03   -0.29693E+00   -0.28280E+00 16056   0.287E+00    0.248E+00
DAV:   3    -0.364448893780E+03    0.59532E-02   -0.13451E-01 18544   0.166E+00    0.112E+00
DAV:   4    -0.364452213955E+03   -0.33202E-02   -0.19954E-02 19312   0.101E+00    0.148E+00
DAV:   5    -0.364445876522E+03    0.63374E-02   -0.67794E-03 16760   0.729E-01    0.352E-01
DAV:   6    -0.364445726067E+03    0.15045E-03   -0.99101E-04 19024   0.176E-01    0.259E-01
DAV:   7    -0.364445538267E+03    0.18780E-03   -0.28921E-04 17400   0.123E-01    0.240E-01
DAV:   8    -0.364445396690E+03    0.14158E-03   -0.32377E-04 17624   0.151E-01    0.224E-01
DAV:   9    -0.364445474735E+03   -0.78046E-04   -0.54828E-04 17848   0.200E-01    0.313E-01
DAV:  10    -0.364445198827E+03    0.27591E-03   -0.49440E-04 19360   0.184E-01    0.164E-01
DAV:  11    -0.364445124534E+03    0.74293E-04   -0.15859E-04 19288   0.885E-02    0.254E-02
DAV:  12    -0.364445131818E+03   -0.72836E-05   -0.35662E-05 19088   0.286E-02    0.361E-02
DAV:  13    -0.364445128353E+03    0.34648E-05   -0.10825E-05 16624   0.256E-02    0.130E-02
DAV:  14    -0.364445130090E+03   -0.17367E-05   -0.26563E-06 10544   0.158E-02    0.257E-02
DAV:  15    -0.364445128252E+03    0.18380E-05   -0.18798E-06  9616   0.137E-02    0.542E-03
DAV:  16    -0.364445128483E+03   -0.23164E-06   -0.66314E-07  8064   0.547E-03
   4 F= -.36444513E+03 E0= -.36435272E+03  d E =-.277227E+00  mag=    38.5507
       N       E                     dE             d eps       ncg     rms          rms(c)
DAV:   1    -0.364295781256E+03    0.14935E+00   -0.45580E+00 20532   0.180E+01    0.527E-01
DAV:   2    -0.364441280528E+03   -0.14550E+00   -0.14248E+00 15954   0.195E+00    0.127E+00
DAV:   3    -0.364442433085E+03   -0.11526E-02   -0.55755E-02 19004   0.103E+00    0.768E-01
DAV:   4    -0.364442958950E+03   -0.52587E-03   -0.81556E-03 18808   0.593E-01    0.818E-01
DAV:   5    -0.364441003444E+03    0.19555E-02   -0.20781E-03 16796   0.408E-01    0.197E-01
DAV:   6    -0.364440965981E+03    0.37464E-04   -0.31262E-04 18896   0.923E-02    0.159E-01
DAV:   7    -0.364440895837E+03    0.70143E-04   -0.74273E-05 17132   0.612E-02    0.141E-01
DAV:   8    -0.364440851672E+03    0.44165E-04   -0.74559E-05 17632   0.744E-02    0.132E-01
DAV:   9    -0.364440833594E+03    0.18078E-04   -0.14124E-04 17968   0.107E-01    0.161E-01
DAV:  10    -0.364440740154E+03    0.93439E-04   -0.12721E-04 19608   0.923E-02    0.499E-02
DAV:  11    -0.364440737545E+03    0.26094E-05   -0.37506E-05 19872   0.333E-02    0.270E-02
DAV:  12    -0.364440737154E+03    0.39136E-06   -0.94147E-06 17248   0.185E-02
   5 F= -.36444074E+03 E0= -.36434837E+03  d E =-.277110E+00  mag=    38.5510
