 vasp.5.4.1 05Feb16 (build Oct 12 2016 17:31:35) complex                        
  
 executed on           IFC91_ompi date 2020.09.07  12:04:20
 running on    1 total cores
 distrk:  each k-point on    1 cores,    1 groups
 distr:  one band on NCORES_PER_BAND=   1 cores,    1 groups


--------------------------------------------------------------------------------------------------------


 INCAR:
 POTCAR:   PAW_PBE Ni_pv 06Sep2000                
 POTCAR:   PAW_PBE Ni_pv 06Sep2000                
  local pseudopotential read in
  partial core-charges read in
  atomic valenz-charges read in
  non local Contribution for L=           1  read in
    real space projection operators read in
  non local Contribution for L=           1  read in
    real space projection operators read in
  non local Contribution for L=           2  read in
    real space projection operators read in
  non local Contribution for L=           2  read in
    real space projection operators read in
  non local Contribution for L=           0  read in
    real space projection operators read in
  non local Contribution for L=           0  read in
    real space projection operators read in
    PAW grid and wavefunctions read in
 
   number of l-projection  operators is LMAX  =           6
   number of lm-projection operators is LMMAX =          18
 
 Optimization of the real space projectors (new method)

 maximal supplied QI-value         = 18.90
 optimisation between [QCUT,QGAM] = [  9.83, 19.65] = [ 27.04,108.16] Ry 
 Optimized for a Real-space Cutoff    1.44 Angstroem

   l    n(q)    QCUT    max X(q) W(low)/X(q) W(high)/X(q)  e(spline) 
   1      8     9.827     3.231    0.38E-04    0.39E-04    0.57E-07
   1      8     9.827     4.241    0.57E-04    0.19E-03    0.30E-06
   2      7     9.827     3.566    0.29E-04    0.66E-04    0.48E-07
   2      7     9.827    20.429    0.17E-03    0.37E-03    0.30E-06
   0      8     9.827    19.799    0.18E-04    0.76E-05    0.78E-08
   0      8     9.827    52.283    0.39E-04    0.68E-04    0.44E-07
 PAW_PBE Ni_pv 06Sep2000                :
 energy of atom  1       EATOM=-3500.3496
 kinetic energy error for atom=    0.1419 (will be added to EATOM!!)
 
 
 POSCAR: Supercell by Yi Wang                    
  positions in direct lattice
  No initial velocities read in
 exchange correlation table for  LEXCH =        8
   RHO(1)=    0.500       N(1)  =     2000
   RHO(2)=  100.500       N(2)  =     4000
 


--------------------------------------------------------------------------------------------------------


 ion  position               nearest neighbor table
   1  0.000  0.000  0.000-   2 2.42   4 2.42   5 2.42   8 2.42  13 2.42  14 2.42  17 2.42  20 2.42
                            29 2.42  49 2.42  50 2.42  53 2.42
   2  0.000  0.000  0.250-   1 2.42   3 2.42   5 2.42   6 2.42  14 2.42  15 2.42  17 2.42  18 2.42
                            30 2.42  50 2.42  51 2.42  54 2.42
   3  0.000  0.000  0.500-   2 2.42   4 2.42   6 2.42   7 2.42  15 2.42  16 2.42  18 2.42  19 2.42
                            31 2.42  51 2.42  52 2.42  55 2.42
   4  0.000  0.000  0.750-   1 2.42   3 2.42   7 2.42   8 2.42  13 2.42  16 2.42  19 2.42  20 2.42
                            32 2.42  49 2.42  52 2.42  56 2.42
   5  0.000  0.250  0.000-   1 2.42   2 2.42   6 2.42   8 2.42   9 2.42  12 2.42  17 2.42  21 2.42
                            24 2.42  53 2.42  54 2.42  57 2.42
   6  0.000  0.250  0.250-   2 2.42   3 2.42   5 2.42   7 2.42   9 2.42  10 2.42  18 2.42  21 2.42
                            22 2.42  54 2.42  55 2.42  58 2.42
   7  0.000  0.250  0.500-   3 2.42   4 2.42   6 2.42   8 2.42  10 2.42  11 2.42  19 2.42  22 2.42
                            23 2.42  55 2.42  56 2.42  59 2.42
   8  0.000  0.250  0.750-   1 2.42   4 2.42   5 2.42   7 2.42  11 2.42  12 2.42  20 2.42  23 2.42
                            24 2.42  53 2.42  56 2.42  60 2.42
   9  0.000  0.500  0.000-   5 2.42   6 2.42  10 2.42  12 2.42  13 2.42  16 2.42  21 2.42  25 2.42
                            28 2.42  57 2.42  58 2.42  61 2.42
  10  0.000  0.500  0.250-   6 2.42   7 2.42   9 2.42  11 2.42  13 2.42  14 2.42  22 2.42  25 2.42
                            26 2.42  58 2.42  59 2.42  62 2.42
  11  0.000  0.500  0.500-   7 2.42   8 2.42  10 2.42  12 2.42  14 2.42  15 2.42  23 2.42  26 2.42
                            27 2.42  59 2.42  60 2.42  63 2.42
  12  0.000  0.500  0.750-   5 2.42   8 2.42   9 2.42  11 2.42  15 2.42  16 2.42  24 2.42  27 2.42
                            28 2.42  57 2.42  60 2.42  64 2.42
  13  0.000  0.750  0.000-   1 2.42   4 2.42   9 2.42  10 2.42  14 2.42  16 2.42  25 2.42  29 2.42
                            32 2.42  49 2.42  61 2.42  62 2.42
  14  0.000  0.750  0.250-   1 2.42   2 2.42  10 2.42  11 2.42  13 2.42  15 2.42  26 2.42  29 2.42
                            30 2.42  50 2.42  62 2.42  63 2.42
  15  0.000  0.750  0.500-   2 2.42   3 2.42  11 2.42  12 2.42  14 2.42  16 2.42  27 2.42  30 2.42
                            31 2.42  51 2.42  63 2.42  64 2.42
  16  0.000  0.750  0.750-   3 2.42   4 2.42   9 2.42  12 2.42  13 2.42  15 2.42  28 2.42  31 2.42
                            32 2.42  52 2.42  61 2.42  64 2.42
  17  0.250  0.000  0.000-   1 2.42   2 2.42   5 2.42  18 2.42  20 2.42  21 2.42  24 2.42  29 2.42
                            30 2.42  33 2.42  36 2.42  45 2.42
  18  0.250  0.000  0.250-   2 2.42   3 2.42   6 2.42  17 2.42  19 2.42  21 2.42  22 2.42  30 2.42
                            31 2.42  33 2.42  34 2.42  46 2.42
  19  0.250  0.000  0.500-   3 2.42   4 2.42   7 2.42  18 2.42  20 2.42  22 2.42  23 2.42  31 2.42
                            32 2.42  34 2.42  35 2.42  47 2.42
  20  0.250  0.000  0.750-   1 2.42   4 2.42   8 2.42  17 2.42  19 2.42  23 2.42  24 2.42  29 2.42
                            32 2.42  35 2.42  36 2.42  48 2.42
  21  0.250  0.250  0.000-   5 2.42   6 2.42   9 2.42  17 2.42  18 2.42  22 2.42  24 2.42  25 2.42
                            28 2.42  33 2.42  37 2.42  40 2.42
  22  0.250  0.250  0.250-   6 2.42   7 2.42  10 2.42  18 2.42  19 2.42  21 2.42  23 2.42  25 2.42
                            26 2.42  34 2.42  37 2.42  38 2.42
  23  0.250  0.250  0.500-   7 2.42   8 2.42  11 2.42  19 2.42  20 2.42  22 2.42  24 2.42  26 2.42
                            27 2.42  35 2.42  38 2.42  39 2.42
  24  0.250  0.250  0.750-   5 2.42   8 2.42  12 2.42  17 2.42  20 2.42  21 2.42  23 2.42  27 2.42
                            28 2.42  36 2.42  39 2.42  40 2.42
  25  0.250  0.500  0.000-   9 2.42  10 2.42  13 2.42  21 2.42  22 2.42  26 2.42  28 2.42  29 2.42
                            32 2.42  37 2.42  41 2.42  44 2.42
  26  0.250  0.500  0.250-  10 2.42  11 2.42  14 2.42  22 2.42  23 2.42  25 2.42  27 2.42  29 2.42
                            30 2.42  38 2.42  41 2.42  42 2.42
  27  0.250  0.500  0.500-  11 2.42  12 2.42  15 2.42  23 2.42  24 2.42  26 2.42  28 2.42  30 2.42
                            31 2.42  39 2.42  42 2.42  43 2.42
  28  0.250  0.500  0.750-   9 2.42  12 2.42  16 2.42  21 2.42  24 2.42  25 2.42  27 2.42  31 2.42
                            32 2.42  40 2.42  43 2.42  44 2.42
  29  0.250  0.750  0.000-   1 2.42  13 2.42  14 2.42  17 2.42  20 2.42  25 2.42  26 2.42  30 2.42
                            32 2.42  41 2.42  45 2.42  48 2.42
  30  0.250  0.750  0.250-   2 2.42  14 2.42  15 2.42  17 2.42  18 2.42  26 2.42  27 2.42  29 2.42
                            31 2.42  42 2.42  45 2.42  46 2.42
  31  0.250  0.750  0.500-   3 2.42  15 2.42  16 2.42  18 2.42  19 2.42  27 2.42  28 2.42  30 2.42
                            32 2.42  43 2.42  46 2.42  47 2.42
  32  0.250  0.750  0.750-   4 2.42  13 2.42  16 2.42  19 2.42  20 2.42  25 2.42  28 2.42  29 2.42
                            31 2.42  44 2.42  47 2.42  48 2.42
  33  0.500  0.000  0.000-  17 2.42  18 2.42  21 2.42  34 2.42  36 2.42  37 2.42  40 2.42  45 2.42
                            46 2.42  49 2.42  52 2.42  61 2.42
  34  0.500  0.000  0.250-  18 2.42  19 2.42  22 2.42  33 2.42  35 2.42  37 2.42  38 2.42  46 2.42
                            47 2.42  49 2.42  50 2.42  62 2.42
  35  0.500  0.000  0.500-  19 2.42  20 2.42  23 2.42  34 2.42  36 2.42  38 2.42  39 2.42  47 2.42
                            48 2.42  50 2.42  51 2.42  63 2.42
  36  0.500  0.000  0.750-  17 2.42  20 2.42  24 2.42  33 2.42  35 2.42  39 2.42  40 2.42  45 2.42
                            48 2.42  51 2.42  52 2.42  64 2.42
  37  0.500  0.250  0.000-  21 2.42  22 2.42  25 2.42  33 2.42  34 2.42  38 2.42  40 2.42  41 2.42
                            44 2.42  49 2.42  53 2.42  56 2.42
  38  0.500  0.250  0.250-  22 2.42  23 2.42  26 2.42  34 2.42  35 2.42  37 2.42  39 2.42  41 2.42
                            42 2.42  50 2.42  53 2.42  54 2.42
  39  0.500  0.250  0.500-  23 2.42  24 2.42  27 2.42  35 2.42  36 2.42  38 2.42  40 2.42  42 2.42
                            43 2.42  51 2.42  54 2.42  55 2.42
  40  0.500  0.250  0.750-  21 2.42  24 2.42  28 2.42  33 2.42  36 2.42  37 2.42  39 2.42  43 2.42
                            44 2.42  52 2.42  55 2.42  56 2.42
  41  0.500  0.500  0.000-  25 2.42  26 2.42  29 2.42  37 2.42  38 2.42  42 2.42  44 2.42  45 2.42
                            48 2.42  53 2.42  57 2.42  60 2.42
  42  0.500  0.500  0.250-  26 2.42  27 2.42  30 2.42  38 2.42  39 2.42  41 2.42  43 2.42  45 2.42
                            46 2.42  54 2.42  57 2.42  58 2.42
  43  0.500  0.500  0.500-  27 2.42  28 2.42  31 2.42  39 2.42  40 2.42  42 2.42  44 2.42  46 2.42
                            47 2.42  55 2.42  58 2.42  59 2.42
  44  0.500  0.500  0.750-  25 2.42  28 2.42  32 2.42  37 2.42  40 2.42  41 2.42  43 2.42  47 2.42
                            48 2.42  56 2.42  59 2.42  60 2.42
  45  0.500  0.750  0.000-  17 2.42  29 2.42  30 2.42  33 2.42  36 2.42  41 2.42  42 2.42  46 2.42
                            48 2.42  57 2.42  61 2.42  64 2.42
  46  0.500  0.750  0.250-  18 2.42  30 2.42  31 2.42  33 2.42  34 2.42  42 2.42  43 2.42  45 2.42
                            47 2.42  58 2.42  61 2.42  62 2.42
  47  0.500  0.750  0.500-  19 2.42  31 2.42  32 2.42  34 2.42  35 2.42  43 2.42  44 2.42  46 2.42
                            48 2.42  59 2.42  62 2.42  63 2.42
  48  0.500  0.750  0.750-  20 2.42  29 2.42  32 2.42  35 2.42  36 2.42  41 2.42  44 2.42  45 2.42
                            47 2.42  60 2.42  63 2.42  64 2.42
  49  0.750  0.000  0.000-   1 2.42   4 2.42  13 2.42  33 2.42  34 2.42  37 2.42  50 2.42  52 2.42
                            53 2.42  56 2.42  61 2.42  62 2.42
  50  0.750  0.000  0.250-   1 2.42   2 2.42  14 2.42  34 2.42  35 2.42  38 2.42  49 2.42  51 2.42
                            53 2.42  54 2.42  62 2.42  63 2.42
  51  0.750  0.000  0.500-   2 2.42   3 2.42  15 2.42  35 2.42  36 2.42  39 2.42  50 2.42  52 2.42
                            54 2.42  55 2.42  63 2.42  64 2.42
  52  0.750  0.000  0.750-   3 2.42   4 2.42  16 2.42  33 2.42  36 2.42  40 2.42  49 2.42  51 2.42
                            55 2.42  56 2.42  61 2.42  64 2.42
  53  0.750  0.250  0.000-   1 2.42   5 2.42   8 2.42  37 2.42  38 2.42  41 2.42  49 2.42  50 2.42
                            54 2.42  56 2.42  57 2.42  60 2.42
  54  0.750  0.250  0.250-   2 2.42   5 2.42   6 2.42  38 2.42  39 2.42  42 2.42  50 2.42  51 2.42
                            53 2.42  55 2.42  57 2.42  58 2.42
  55  0.750  0.250  0.500-   3 2.42   6 2.42   7 2.42  39 2.42  40 2.42  43 2.42  51 2.42  52 2.42
                            54 2.42  56 2.42  58 2.42  59 2.42
  56  0.750  0.250  0.750-   4 2.42   7 2.42   8 2.42  37 2.42  40 2.42  44 2.42  49 2.42  52 2.42
                            53 2.42  55 2.42  59 2.42  60 2.42
  57  0.750  0.500  0.000-   5 2.42   9 2.42  12 2.42  41 2.42  42 2.42  45 2.42  53 2.42  54 2.42
                            58 2.42  60 2.42  61 2.42  64 2.42
  58  0.750  0.500  0.250-   6 2.42   9 2.42  10 2.42  42 2.42  43 2.42  46 2.42  54 2.42  55 2.42
                            57 2.42  59 2.42  61 2.42  62 2.42
  59  0.750  0.500  0.500-   7 2.42  10 2.42  11 2.42  43 2.42  44 2.42  47 2.42  55 2.42  56 2.42
                            58 2.42  60 2.42  62 2.42  63 2.42
  60  0.750  0.500  0.750-   8 2.42  11 2.42  12 2.42  41 2.42  44 2.42  48 2.42  53 2.42  56 2.42
                            57 2.42  59 2.42  63 2.42  64 2.42
  61  0.750  0.750  0.000-   9 2.42  13 2.42  16 2.42  33 2.42  45 2.42  46 2.42  49 2.42  52 2.42
                            57 2.42  58 2.42  62 2.42  64 2.42
  62  0.750  0.750  0.250-  10 2.42  13 2.42  14 2.42  34 2.42  46 2.42  47 2.42  49 2.42  50 2.42
                            58 2.42  59 2.42  61 2.42  63 2.42
  63  0.750  0.750  0.500-  11 2.42  14 2.42  15 2.42  35 2.42  47 2.42  48 2.42  50 2.42  51 2.42
                            59 2.42  60 2.42  62 2.42  64 2.42
  64  0.750  0.750  0.750-  12 2.42  15 2.42  16 2.42  36 2.42  45 2.42  48 2.42  51 2.42  52 2.42
                            57 2.42  60 2.42  61 2.42  63 2.42
 
  LATTYP: Found a face centered cubic cell.
 ALAT       =    13.6770000000
  
  Lattice vectors:
  
 A1 = (   0.0000000000,   6.8385000000,   6.8385000000)
 A2 = (   6.8385000000,   0.0000000000,   6.8385000000)
 A3 = (   6.8385000000,   6.8385000000,   0.0000000000)


Analysis of symmetry for initial positions (statically):
=====================================================================
 Subroutine PRICEL returns following result:
 
  LATTYP: Found a face centered cubic cell.
 ALAT       =     3.4192500000
  
  Lattice vectors:
  
 A1 = (   0.0000000000,   1.7096250000,   1.7096250000)
 A2 = (   1.7096250000,   0.0000000000,   1.7096250000)
 A3 = (   1.7096250000,   1.7096250000,   0.0000000000)
 
  64 primitive cells build up your supercell.
 

 Routine SETGRP: Setting up the symmetry group for a 
 face centered cubic supercell.


 Subroutine GETGRP returns: Found 48 space group operations
 (whereof 48 operations were pure point group operations)
 out of a pool of 48 trial point group operations.


The static configuration has the point symmetry O_h .


Analysis of symmetry for dynamics (positions and initial velocities):
=====================================================================
 Subroutine PRICEL returns following result:
 
  LATTYP: Found a face centered cubic cell.
 ALAT       =     3.4192500000
  
  Lattice vectors:
  
 A1 = (   0.0000000000,   1.7096250000,   1.7096250000)
 A2 = (   1.7096250000,   0.0000000000,   1.7096250000)
 A3 = (   1.7096250000,   1.7096250000,   0.0000000000)
 
  64 primitive cells build up your supercell.
 

 Routine SETGRP: Setting up the symmetry group for a 
 face centered cubic supercell.


 Subroutine GETGRP returns: Found 48 space group operations
 (whereof 48 operations were pure point group operations)
 out of a pool of 48 trial point group operations.


The dynamic configuration has the point symmetry O_h .


Analysis of structural, dynamic, and magnetic symmetry:
=====================================================================
 Subroutine PRICEL returns following result:
 
  LATTYP: Found a face centered cubic cell.
 ALAT       =     3.4192500000
  
  Lattice vectors:
  
 A1 = (   0.0000000000,   1.7096250000,   1.7096250000)
 A2 = (   1.7096250000,   0.0000000000,   1.7096250000)
 A3 = (   1.7096250000,   1.7096250000,   0.0000000000)
 
  64 primitive cells build up your supercell.
 

 Routine SETGRP: Setting up the symmetry group for a 
 face centered cubic supercell.


 Subroutine GETGRP returns: Found 48 space group operations
 (whereof 48 operations were pure point group operations)
 out of a pool of 48 trial point group operations.


The magnetic configuration has the point symmetry O_h .


 Subroutine INISYM returns: Found 48 space group operations
 (whereof 48 operations are pure point group operations),
 and found    64 'primitive' translations

 
 
 KPOINTS: Zr 15x15x15                             

Automatic generation of k-mesh.
Space group operators:
 irot       det(A)        alpha          n_x          n_y          n_z        tau_x        tau_y        tau_z
    1     1.000000     0.000000     1.000000     0.000000     0.000000     0.000000     0.000000     0.000000
    2    -1.000000     0.000000     1.000000     0.000000     0.000000     0.000000     0.000000     0.000000
    3     1.000000   120.000000    -0.577350    -0.577350    -0.577350     0.000000     0.000000     0.000000
    4    -1.000000   120.000000    -0.577350    -0.577350    -0.577350     0.000000     0.000000     0.000000
    5     1.000000   120.000000     0.577350     0.577350     0.577350     0.000000     0.000000     0.000000
    6    -1.000000   120.000000     0.577350     0.577350     0.577350     0.000000     0.000000     0.000000
    7     1.000000    90.000000     0.000000     0.000000    -1.000000     0.000000     0.000000     0.000000
    8    -1.000000    90.000000     0.000000     0.000000    -1.000000     0.000000     0.000000     0.000000
    9     1.000000   180.000000     0.000000     0.707107     0.707107     0.000000     0.000000     0.000000
   10    -1.000000   180.000000     0.000000     0.707107     0.707107     0.000000     0.000000     0.000000
   11     1.000000    90.000000     0.000000     1.000000     0.000000     0.000000     0.000000     0.000000
   12    -1.000000    90.000000     0.000000     1.000000     0.000000     0.000000     0.000000     0.000000
   13     1.000000   180.000000     0.000000     0.000000     1.000000     0.000000     0.000000     0.000000
   14    -1.000000   180.000000     0.000000     0.000000     1.000000     0.000000     0.000000     0.000000
   15     1.000000   120.000000    -0.577350     0.577350     0.577350     0.000000     0.000000     0.000000
   16    -1.000000   120.000000    -0.577350     0.577350     0.577350     0.000000     0.000000     0.000000
   17     1.000000   120.000000    -0.577350     0.577350    -0.577350     0.000000     0.000000     0.000000
   18    -1.000000   120.000000    -0.577350     0.577350    -0.577350     0.000000     0.000000     0.000000
   19     1.000000    90.000000     0.000000     0.000000     1.000000     0.000000     0.000000     0.000000
   20    -1.000000    90.000000     0.000000     0.000000     1.000000     0.000000     0.000000     0.000000
   21     1.000000    90.000000    -1.000000     0.000000     0.000000     0.000000     0.000000     0.000000
   22    -1.000000    90.000000    -1.000000     0.000000     0.000000     0.000000     0.000000     0.000000
   23     1.000000   180.000000     0.707107     0.000000     0.707107     0.000000     0.000000     0.000000
   24    -1.000000   180.000000     0.707107     0.000000     0.707107     0.000000     0.000000     0.000000
   25     1.000000   120.000000     0.577350    -0.577350     0.577350     0.000000     0.000000     0.000000
   26    -1.000000   120.000000     0.577350    -0.577350     0.577350     0.000000     0.000000     0.000000
   27     1.000000   120.000000    -0.577350    -0.577350     0.577350     0.000000     0.000000     0.000000
   28    -1.000000   120.000000    -0.577350    -0.577350     0.577350     0.000000     0.000000     0.000000
   29     1.000000   180.000000     1.000000     0.000000     0.000000     0.000000     0.000000     0.000000
   30    -1.000000   180.000000     1.000000     0.000000     0.000000     0.000000     0.000000     0.000000
   31     1.000000    90.000000     0.000000    -1.000000     0.000000     0.000000     0.000000     0.000000
   32    -1.000000    90.000000     0.000000    -1.000000     0.000000     0.000000     0.000000     0.000000
   33     1.000000   180.000000     0.707107     0.707107     0.000000     0.000000     0.000000     0.000000
   34    -1.000000   180.000000     0.707107     0.707107     0.000000     0.000000     0.000000     0.000000
   35     1.000000    90.000000     1.000000     0.000000     0.000000     0.000000     0.000000     0.000000
   36    -1.000000    90.000000     1.000000     0.000000     0.000000     0.000000     0.000000     0.000000
   37     1.000000   120.000000     0.577350    -0.577350    -0.577350     0.000000     0.000000     0.000000
   38    -1.000000   120.000000     0.577350    -0.577350    -0.577350     0.000000     0.000000     0.000000
   39     1.000000   180.000000     0.000000     1.000000     0.000000     0.000000     0.000000     0.000000
   40    -1.000000   180.000000     0.000000     1.000000     0.000000     0.000000     0.000000     0.000000
   41     1.000000   120.000000     0.577350     0.577350    -0.577350     0.000000     0.000000     0.000000
   42    -1.000000   120.000000     0.577350     0.577350    -0.577350     0.000000     0.000000     0.000000
   43     1.000000   180.000000     0.000000    -0.707107     0.707107     0.000000     0.000000     0.000000
   44    -1.000000   180.000000     0.000000    -0.707107     0.707107     0.000000     0.000000     0.000000
   45     1.000000   180.000000     0.707107    -0.707107     0.000000     0.000000     0.000000     0.000000
   46    -1.000000   180.000000     0.707107    -0.707107     0.000000     0.000000     0.000000     0.000000
   47     1.000000   180.000000     0.707107     0.000000    -0.707107     0.000000     0.000000     0.000000
   48    -1.000000   180.000000     0.707107     0.000000    -0.707107     0.000000     0.000000     0.000000
 
 Subroutine IBZKPT returns following result:
 ===========================================
 
 Found      4 irreducible k-points:
 
 Following reciprocal coordinates:
            Coordinates               Weight
  0.000000  0.000000  0.000000      1.000000
  0.333333  0.000000  0.000000      8.000000
  0.333333  0.333333  0.000000      6.000000
 -0.333333  0.333333  0.000000     12.000000
 
 Following cartesian coordinates:
            Coordinates               Weight
  0.000000  0.000000  0.000000      1.000000
 -0.024372  0.024372  0.024372      8.000000
  0.000000  0.000000  0.048744      6.000000
  0.048744 -0.048744  0.000000     12.000000
 
 
 Subroutine IBZKPT_HF returns following result:
 ==============================================
 
 Found     27 k-points in 1st BZ
 the following     27 k-points will be used (e.g. in the exchange kernel)
 Following reciprocal coordinates:   # in IRBZ
  0.000000  0.000000  0.000000    0.03703704   1 t-inv F
  0.333333  0.000000  0.000000    0.03703704   2 t-inv F
  0.333333  0.333333  0.000000    0.03703704   3 t-inv F
 -0.333333  0.333333  0.000000    0.03703704   4 t-inv F
 -0.333333  0.000000  0.000000    0.03703704   2 t-inv F
  0.000000  0.333333  0.000000    0.03703704   2 t-inv F
  0.000000 -0.333333  0.000000    0.03703704   2 t-inv F
  0.000000  0.000000  0.333333    0.03703704   2 t-inv F
  0.000000  0.000000 -0.333333    0.03703704   2 t-inv F
  0.333333  0.333333  0.333333    0.03703704   2 t-inv F
 -0.333333 -0.333333 -0.333333    0.03703704   2 t-inv F
 -0.333333 -0.333333  0.000000    0.03703704   3 t-inv F
  0.000000  0.333333  0.333333    0.03703704   3 t-inv F
  0.000000 -0.333333 -0.333333    0.03703704   3 t-inv F
  0.333333  0.000000  0.333333    0.03703704   3 t-inv F
 -0.333333  0.000000 -0.333333    0.03703704   3 t-inv F
  0.333333 -0.333333  0.000000    0.03703704   4 t-inv F
  0.000000 -0.333333  0.333333    0.03703704   4 t-inv F
  0.000000  0.333333 -0.333333    0.03703704   4 t-inv F
  0.333333  0.000000 -0.333333    0.03703704   4 t-inv F
 -0.333333  0.000000  0.333333    0.03703704   4 t-inv F
  0.333333  0.333333  0.666667    0.03703704   4 t-inv F
 -0.333333 -0.333333 -0.666667    0.03703704   4 t-inv F
 -0.333333 -0.666667 -0.333333    0.03703704   4 t-inv F
  0.333333  0.666667  0.333333    0.03703704   4 t-inv F
 -0.666667 -0.333333 -0.333333    0.03703704   4 t-inv F
  0.666667  0.333333  0.333333    0.03703704   4 t-inv F


--------------------------------------------------------------------------------------------------------




 Dimension of arrays:
   k-points           NKPTS =      4   k-points in BZ     NKDIM =      4   number of bands    NBANDS=    646
   number of dos      NEDOS =    301   number of ions     NIONS =     64
   non local maximal  LDIM  =      6   non local SUM 2l+1 LMDIM =     18
   total plane-waves  NPLWV = 262144
   max r-space proj   IRMAX =   5170   max aug-charges    IRDMAX=   9247
   dimension x,y,z NGX =    64 NGY =   64 NGZ =   64
   dimension x,y,z NGXF=   128 NGYF=  128 NGZF=  128
   support grid    NGXF=   128 NGYF=  128 NGZF=  128
   ions per type =              64
 NGX,Y,Z   is equivalent  to a cutoff of  11.00, 11.00, 11.00 a.u.
 NGXF,Y,Z  is equivalent  to a cutoff of  22.00, 22.00, 22.00 a.u.


 I would recommend the setting:
   dimension x,y,z NGX =    61 NGY =   61 NGZ =   61
 SYSTEM =  phonon of Zr bcc - omiga                
 POSCAR =  Supercell by Yi Wang                    

 Startparameter for this run:
   NWRITE =      0    write-flag & timer
   PREC   = a         normal or accurate (medium, high low for compatibility)
   ISTART =      0    job   : 0-new  1-cont  2-samecut
   ICHARG =      2    charge: 1-file 2-atom 10-const
   ISPIN  =      2    spin polarized calculation?
   LNONCOLLINEAR =      F non collinear calculations
   LSORBIT =      F    spin-orbit coupling
   INIWAV =      1    electr: 0-lowe 1-rand  2-diag
   LASPH  =      F    aspherical Exc in radial PAW
   METAGGA=      F    non-selfconsistent MetaGGA calc.

 Electronic Relaxation 1
   ENCUT  =  367.9 eV  27.04 Ry    5.20 a.u.  15.13 15.13 15.13*2*pi/ulx,y,z
   ENINI  =  367.9     initial cutoff
   ENAUG  =  703.4 eV  augmentation charge cutoff
   NELM   =     60;   NELMIN=  2; NELMDL=  0     # of ELM steps 
   EDIFF  = 0.1E-05   stopping-criterion for ELM
   LREAL  =      T    real-space projection
   NLSPLINE    = F    spline interpolate recip. space projectors
   LCOMPAT=      F    compatible to vasp.4.4
   GGA_COMPAT  = T    GGA compatible to vasp.4.4-vasp.4.6
   LMAXPAW     = -100 max onsite density
   LMAXMIX     =    2 max onsite mixed and CHGCAR
   VOSKOWN=      0    Vosko Wilk Nusair interpolation
   ROPT   =   -0.00025
 Ionic relaxation
   EDIFFG = 0.1E-04   stopping-criterion for IOM
   NSW    =    805    number of steps for IOM
   NBLOCK =      1;   KBLOCK =      1    inner block; outer block 
   IBRION =      6    ionic relax: 0-MD 1-quasi-New 2-CG
   NFREE  =      4    steps in history (QN), initial steepest desc. (CG)
   ISIF   =      2    stress and relaxation
   IWAVPR =     11    prediction:  0-non 1-charg 2-wave 3-comb
   ISYM   =      2    0-nonsym 1-usesym 2-fastsym
   LCORR  =      T    Harris-Foulkes like correction to forces

   POTIM  = 0.5000    time-step for ionic-motion
   TEIN   =    0.0    initial temperature
   TEBEG  =    0.0;   TEEND  =   0.0 temperature during run
   SMASS  =  -3.00    Nose mass-parameter (am)
   estimated Nose-frequenzy (Omega)   =  0.10E-29 period in steps =****** mass=  -0.214E-26a.u.
   SCALEE = 1.0000    scale energy and forces
   NPACO  =    256;   APACO  = 16.0  distance and # of slots for P.C.
   PSTRESS=    0.0 pullay stress

  Mass of Ions in am
   POMASS =  58.69
  Ionic Valenz
   ZVAL   =  16.00
  Atomic Wigner-Seitz radii
   RWIGS  =  -1.00
  virtual crystal weights 
   VCA    =   1.00
   NELECT =    1024.0000    total number of electrons
   NUPDOWN=      -1.0000    fix difference up-down

 DOS related values:
   EMIN   =  10.00;   EMAX   =-10.00  energy-range for DOS
   EFERMI =   0.00
   ISMEAR =     1;   SIGMA  =   0.20  broadening in eV -4-tet -1-fermi 0-gaus

 Electronic relaxation 2 (details)
   IALGO  =     38    algorithm
   LDIAG  =      T    sub-space diagonalisation (order eigenvalues)
   LSUBROT=      F    optimize rotation matrix (better conditioning)
   TURBO    =      0    0=normal 1=particle mesh
   IRESTART =      0    0=no restart 2=restart with 2 vectors
   NREBOOT  =      0    no. of reboots
   NMIN     =      0    reboot dimension
   EREF     =   0.00    reference energy to select bands
   IMIX   =      4    mixing-type and parameters
     AMIX     =   0.40;   BMIX     =  1.00
     AMIX_MAG =   1.60;   BMIX_MAG =  1.00
     AMIN     =   0.10
     WC   =   100.;   INIMIX=   1;  MIXPRE=   1;  MAXMIX= -45

 Intra band minimization:
   WEIMIN = 0.0010     energy-eigenvalue tresh-hold
   EBREAK =  0.39E-09  absolut break condition
   DEPER  =   0.30     relativ break condition  

   TIME   =   0.40     timestep for ELM

  volume/ion in A,a.u.               =       9.99        67.44
  Fermi-wavevector in a.u.,A,eV,Ry     =   1.915155  3.619118 49.903711  3.667819
  Thomas-Fermi vector in A             =   2.950909
 
 Write flags
   LWAVE  =      T    write WAVECAR
   LCHARG =      T    write CHGCAR
   LVTOT  =      F    write LOCPOT, total local potential
   LVHAR  =      F    write LOCPOT, Hartree potential only
   LELF   =      F    write electronic localiz. function (ELF)
   LORBIT =      0    0 simple, 1 ext, 2 COOP (PROOUT)


 Dipole corrections
   LMONO  =      F    monopole corrections only (constant potential shift)
   LDIPOL =      F    correct potential (dipole corrections)
   IDIPOL =      0    1-x, 2-y, 3-z, 4-all directions 
   EPSILON=  1.0000000 bulk dielectric constant

 Exchange correlation treatment:
   GGA     =    --    GGA type
   LEXCH   =     8    internal setting for exchange type
   VOSKOWN=      0    Vosko Wilk Nusair interpolation
   LHFCALC =     F    Hartree Fock is set to
   LHFONE  =     F    Hartree Fock one center treatment
   AEXX    =    0.0000 exact exchange contribution

 Linear response parameters
   LEPSILON=     F    determine dielectric tensor
   LRPA    =     F    only Hartree local field effects (RPA)
   LNABLA  =     F    use nabla operator in PAW spheres
   LVEL    =     F    velocity operator in full k-point grid
   LINTERFAST=   F  fast interpolation
   KINTER  =     0    interpolate to denser k-point grid
   CSHIFT  =0.1000    complex shift for real part using Kramers Kronig
   OMEGAMAX=  -1.0    maximum frequency
   DEG_THRESHOLD= 0.2000000E-02 threshold for treating states as degnerate
   RTIME   =    0.100 relaxation time in fs

 Orbital magnetization related:
   ORBITALMAG=     F  switch on orbital magnetization
   LCHIMAG   =     F  perturbation theory with respect to B field
   DQ        =  0.001000  dq finite difference perturbation B field



--------------------------------------------------------------------------------------------------------


 finite differences with symmetry
 charge density and potential will be updated during run
 spin polarized calculation
 Variant of blocked Davidson
 Davidson routine will perform the subspace rotation
 perform sub-space diagonalisation
    after iterative eigenvector-optimisation
 modified Broyden-mixing scheme, WC =      100.0
 initial mixing is a Kerker type mixing with AMIX =  0.4000 and BMIX =      1.0000
 Hartree-type preconditioning will be used
 using additional bands          134
 real space projection scheme for non local part
 use partial core corrections
 calculate Harris-corrections to forces 
   (improved forces if not selfconsistent)
 use gradient corrections 
 use of overlap-Matrix (Vanderbilt PP)
 Methfessel and Paxton  Order N= 1 SIGMA  =   0.20


--------------------------------------------------------------------------------------------------------


  energy-cutoff  :      367.94
  volume of cell :      639.61
      direct lattice vectors                 reciprocal lattice vectors
     0.000000000  6.838500000  6.838500000    -0.073115449  0.073115449  0.073115449
     6.838500000  0.000000000  6.838500000     0.073115449 -0.073115449  0.073115449
     6.838500000  6.838500000  0.000000000     0.073115449  0.073115449 -0.073115449

  length of vectors
     9.671099446  9.671099446  9.671099446     0.126639673  0.126639673  0.126639673


 
 k-points in units of 2pi/SCALE and weight: Zr 15x15x15                             
   0.00000000  0.00000000  0.00000000       0.037
  -0.02437182  0.02437182  0.02437182       0.296
   0.00000000  0.00000000  0.04874363       0.222
   0.04874363 -0.04874363  0.00000000       0.444
 
 k-points in reciprocal lattice and weights: Zr 15x15x15                             
   0.00000000  0.00000000  0.00000000       0.037
   0.33333333  0.00000000  0.00000000       0.296
   0.33333333  0.33333333  0.00000000       0.222
  -0.33333333  0.33333333  0.00000000       0.444
 
 position of ions in fractional coordinates (direct lattice) 
   0.00000000  0.00000000  0.00000000
   0.00000000  0.00000000  0.25000000
   0.00000000  0.00000000  0.50000000
   0.00000000  0.00000000  0.75000000
   0.00000000  0.25000000  0.00000000
   0.00000000  0.25000000  0.25000000
   0.00000000  0.25000000  0.50000000
   0.00000000  0.25000000  0.75000000
   0.00000000  0.50000000  0.00000000
   0.00000000  0.50000000  0.25000000
   0.00000000  0.50000000  0.50000000
   0.00000000  0.50000000  0.75000000
   0.00000000  0.75000000  0.00000000
   0.00000000  0.75000000  0.25000000
   0.00000000  0.75000000  0.50000000
   0.00000000  0.75000000  0.75000000
   0.25000000  0.00000000  0.00000000
   0.25000000  0.00000000  0.25000000
   0.25000000  0.00000000  0.50000000
   0.25000000  0.00000000  0.75000000
   0.25000000  0.25000000  0.00000000
   0.25000000  0.25000000  0.25000000
   0.25000000  0.25000000  0.50000000
   0.25000000  0.25000000  0.75000000
   0.25000000  0.50000000  0.00000000
   0.25000000  0.50000000  0.25000000
   0.25000000  0.50000000  0.50000000
   0.25000000  0.50000000  0.75000000
   0.25000000  0.75000000  0.00000000
   0.25000000  0.75000000  0.25000000
   0.25000000  0.75000000  0.50000000
   0.25000000  0.75000000  0.75000000
   0.50000000  0.00000000  0.00000000
   0.50000000  0.00000000  0.25000000
   0.50000000  0.00000000  0.50000000
   0.50000000  0.00000000  0.75000000
   0.50000000  0.25000000  0.00000000
   0.50000000  0.25000000  0.25000000
   0.50000000  0.25000000  0.50000000
   0.50000000  0.25000000  0.75000000
   0.50000000  0.50000000  0.00000000
   0.50000000  0.50000000  0.25000000
   0.50000000  0.50000000  0.50000000
   0.50000000  0.50000000  0.75000000
   0.50000000  0.75000000  0.00000000
   0.50000000  0.75000000  0.25000000
   0.50000000  0.75000000  0.50000000
   0.50000000  0.75000000  0.75000000
   0.75000000  0.00000000  0.00000000
   0.75000000  0.00000000  0.25000000
   0.75000000  0.00000000  0.50000000
   0.75000000  0.00000000  0.75000000
   0.75000000  0.25000000  0.00000000
   0.75000000  0.25000000  0.25000000
   0.75000000  0.25000000  0.50000000
   0.75000000  0.25000000  0.75000000
   0.75000000  0.50000000  0.00000000
   0.75000000  0.50000000  0.25000000
   0.75000000  0.50000000  0.50000000
   0.75000000  0.50000000  0.75000000
   0.75000000  0.75000000  0.00000000
   0.75000000  0.75000000  0.25000000
   0.75000000  0.75000000  0.50000000
   0.75000000  0.75000000  0.75000000
 
 position of ions in cartesian coordinates  (Angst):
   0.00000000  0.00000000  0.00000000
   1.70962500  1.70962500  0.00000000
   3.41925000  3.41925000  0.00000000
   5.12887500  5.12887500  0.00000000
   1.70962500  0.00000000  1.70962500
   3.41925000  1.70962500  1.70962500
   5.12887500  3.41925000  1.70962500
   6.83850000  5.12887500  1.70962500
   3.41925000  0.00000000  3.41925000
   5.12887500  1.70962500  3.41925000
   6.83850000  3.41925000  3.41925000
   8.54812500  5.12887500  3.41925000
   5.12887500  0.00000000  5.12887500
   6.83850000  1.70962500  5.12887500
   8.54812500  3.41925000  5.12887500
  10.25775000  5.12887500  5.12887500
   0.00000000  1.70962500  1.70962500
   1.70962500  3.41925000  1.70962500
   3.41925000  5.12887500  1.70962500
   5.12887500  6.83850000  1.70962500
   1.70962500  1.70962500  3.41925000
   3.41925000  3.41925000  3.41925000
   5.12887500  5.12887500  3.41925000
   6.83850000  6.83850000  3.41925000
   3.41925000  1.70962500  5.12887500
   5.12887500  3.41925000  5.12887500
   6.83850000  5.12887500  5.12887500
   8.54812500  6.83850000  5.12887500
   5.12887500  1.70962500  6.83850000
   6.83850000  3.41925000  6.83850000
   8.54812500  5.12887500  6.83850000
  10.25775000  6.83850000  6.83850000
   0.00000000  3.41925000  3.41925000
   1.70962500  5.12887500  3.41925000
   3.41925000  6.83850000  3.41925000
   5.12887500  8.54812500  3.41925000
   1.70962500  3.41925000  5.12887500
   3.41925000  5.12887500  5.12887500
   5.12887500  6.83850000  5.12887500
   6.83850000  8.54812500  5.12887500
   3.41925000  3.41925000  6.83850000
   5.12887500  5.12887500  6.83850000
   6.83850000  6.83850000  6.83850000
   8.54812500  8.54812500  6.83850000
   5.12887500  3.41925000  8.54812500
   6.83850000  5.12887500  8.54812500
   8.54812500  6.83850000  8.54812500
  10.25775000  8.54812500  8.54812500
   0.00000000  5.12887500  5.12887500
   1.70962500  6.83850000  5.12887500
   3.41925000  8.54812500  5.12887500
   5.12887500 10.25775000  5.12887500
   1.70962500  5.12887500  6.83850000
   3.41925000  6.83850000  6.83850000
   5.12887500  8.54812500  6.83850000
   6.83850000 10.25775000  6.83850000
   3.41925000  5.12887500  8.54812500
   5.12887500  6.83850000  8.54812500
   6.83850000  8.54812500  8.54812500
   8.54812500 10.25775000  8.54812500
   5.12887500  5.12887500 10.25775000
   6.83850000  6.83850000 10.25775000
   8.54812500  8.54812500 10.25775000
  10.25775000 10.25775000 10.25775000
 


--------------------------------------------------------------------------------------------------------


 k-point  1 :   0.0000 0.0000 0.0000  plane waves:   10177
 k-point  2 :   0.3333 0.0000 0.0000  plane waves:   10255
 k-point  3 :   0.3333 0.3333 0.0000  plane waves:   10238
 k-point  4 :  -0.3333 0.3333 0.0000  plane waves:   10293

 maximum and minimum number of plane-waves per node :     10293    10177

 maximum number of plane-waves:     10293
 maximum index in each direction: 
   IXMAX=   15   IYMAX=   15   IZMAX=   15
   IXMIN=  -15   IYMIN=  -15   IZMIN=  -15

 NGX is ok and might be reduce to  62
 NGY is ok and might be reduce to  62
 NGZ is ok and might be reduce to  62

 serial   3D FFT for wavefunctions
 parallel 3D FFT for charge:
    minimum data exchange during FFTs selected (reduces bandwidth)


 total amount of memory used by VASP on root node  1280191. kBytes
========================================================================

   base      :      30000. kBytes
   nonlr-proj:      55429. kBytes
   fftplans  :      72476. kBytes
   grid      :     173932. kBytes
   one-center:       1990. kBytes
   wavefun   :     946364. kBytes
 
     INWAV:  cpu time    0.0000: real time    0.0000
 Broyden mixing: mesh for mixing (old mesh)
   NGX = 31   NGY = 31   NGZ = 31
  (NGX  =128   NGY  =128   NGZ  =128)
  gives a total of  29791 points

 initial charge density was supplied:
 charge density of overlapping atoms calculated
 number of electron    1024.0000000 magnetization      64.0000000
 keeping initial charge density in first step


--------------------------------------------------------------------------------------------------------


 Maximum index for non-local projection operator         4921
 Maximum index for augmentation-charges         8685 (set IRDMAX)


--------------------------------------------------------------------------------------------------------


 First call to EWALD:  gamma=   0.206
 Maximum number of real-space cells 3x 3x 3
 Maximum number of reciprocal cells 3x 3x 3

 FEWALD executed in parallel
    FEWALD:  cpu time    0.0220: real time    0.0220


----------------------------------------- Iteration    1(   1)  ---------------------------------------


    POTLOK:  cpu time    2.1447: real time    2.1427
    SETDIJ:  cpu time    0.3969: real time    0.3972
     EDDAV:  cpu time  435.1648: real time  434.8055
       DOS:  cpu time    0.0130: real time    0.0129
    --------------------------------------------
      LOOP:  cpu time  437.7215: real time  437.3615

 eigenvalue-minimisations  : 11864
 total energy-change (2. order) : 0.1423301E+05  (-0.5301890E+05)
 number of electron    1024.0000000 magnetization      64.0000000
 augmentation part     1024.0000000 magnetization      64.0000000

 Free energy of the ion-electron system (eV)
  ---------------------------------------------------
  alpha Z        PSCENC =     10788.19976491
  Ewald energy   TEWEN  =   -158176.33604460
  -Hartree energ DENC   =    -59049.51858578
  -exchange      EXHF   =         0.00000000
  -V(xc)+E(xc)   XCENC  =      5740.20187869
  PAW double counting   =    172361.15642774  -181272.45834873
  entropy T*S    EENTRO =         0.02060822
  eigenvalues    EBANDS =      -171.55066415
  atomic energy  EATOM  =    224013.29143063
  Solvation  Ediel_sol  =         0.00000000
  ---------------------------------------------------
  free energy    TOTEN  =     14233.00646693 eV

  energy without entropy =    14232.98585871  energy(sigma->0) =    14232.99959752


--------------------------------------------------------------------------------------------------------




----------------------------------------- Iteration    1(   2)  ---------------------------------------


     EDDAV:  cpu time  389.5378: real time  389.2169
       DOS:  cpu time    0.0140: real time    0.0138
    --------------------------------------------
      LOOP:  cpu time  389.5528: real time  389.2320

 eigenvalue-minimisations  : 10336
 total energy-change (2. order) :-0.1332985E+05  (-0.1289443E+05)
 number of electron    1024.0000000 magnetization      64.0000000
 augmentation part     1024.0000000 magnetization      64.0000000

 Free energy of the ion-electron system (eV)
  ---------------------------------------------------
  alpha Z        PSCENC =     10788.19976491
  Ewald energy   TEWEN  =   -158176.33604460
  -Hartree energ DENC   =    -59049.51858578
  -exchange      EXHF   =         0.00000000
  -V(xc)+E(xc)   XCENC  =      5740.20187869
  PAW double counting   =    172361.15642774  -181272.45834873
  entropy T*S    EENTRO =         0.00156560
  eigenvalues    EBANDS =    -13501.38088338
  atomic energy  EATOM  =    224013.29143063
  Solvation  Ediel_sol  =         0.00000000
  ---------------------------------------------------
  free energy    TOTEN  =       903.15720508 eV

  energy without entropy =      903.15563948  energy(sigma->0) =      903.15668321


--------------------------------------------------------------------------------------------------------




----------------------------------------- Iteration    1(   3)  ---------------------------------------


     EDDAV:  cpu time  397.1206: real time  396.7971
       DOS:  cpu time    0.0150: real time    0.0152
    --------------------------------------------
      LOOP:  cpu time  397.1356: real time  396.8149

 eigenvalue-minimisations  : 10622
 total energy-change (2. order) :-0.1264643E+04  (-0.1046604E+04)
 number of electron    1024.0000000 magnetization      64.0000000
 augmentation part     1024.0000000 magnetization      64.0000000

 Free energy of the ion-electron system (eV)
  ---------------------------------------------------
  alpha Z        PSCENC =     10788.19976491
  Ewald energy   TEWEN  =   -158176.33604460
  -Hartree energ DENC   =    -59049.51858578
  -exchange      EXHF   =         0.00000000
  -V(xc)+E(xc)   XCENC  =      5740.20187869
  PAW double counting   =    172361.15642774  -181272.45834873
  entropy T*S    EENTRO =         0.05790904
  eigenvalues    EBANDS =    -14766.08013956
  atomic energy  EATOM  =    224013.29143063
  Solvation  Ediel_sol  =         0.00000000
  ---------------------------------------------------
  free energy    TOTEN  =      -361.48570766 eV

  energy without entropy =     -361.54361670  energy(sigma->0) =     -361.50501067


--------------------------------------------------------------------------------------------------------




----------------------------------------- Iteration    1(   4)  ---------------------------------------


     EDDAV:  cpu time  408.4139: real time  408.0744
       DOS:  cpu time    0.0150: real time    0.0150
    --------------------------------------------
      LOOP:  cpu time  408.4299: real time  408.0899

 eigenvalue-minimisations  : 11056
 total energy-change (2. order) :-0.6473529E+02  (-0.6339341E+02)
 number of electron    1024.0000000 magnetization      64.0000000
 augmentation part     1024.0000000 magnetization      64.0000000

 Free energy of the ion-electron system (eV)
  ---------------------------------------------------
  alpha Z        PSCENC =     10788.19976491
  Ewald energy   TEWEN  =   -158176.33604460
  -Hartree energ DENC   =    -59049.51858578
  -exchange      EXHF   =         0.00000000
  -V(xc)+E(xc)   XCENC  =      5740.20187869
  PAW double counting   =    172361.15642774  -181272.45834873
  entropy T*S    EENTRO =         0.09816082
  eigenvalues    EBANDS =    -14830.85568080
  atomic energy  EATOM  =    224013.29143063
  Solvation  Ediel_sol  =         0.00000000
  ---------------------------------------------------
  free energy    TOTEN  =      -426.22099712 eV

  energy without entropy =     -426.31915794  energy(sigma->0) =     -426.25371739


--------------------------------------------------------------------------------------------------------




----------------------------------------- Iteration    1(   5)  ---------------------------------------


     EDDAV:  cpu time  405.9183: real time  405.5822
       DOS:  cpu time    0.0150: real time    0.0146
    CHARGE:  cpu time   17.5243: real time   17.5089
    MIXING:  cpu time    0.0470: real time    0.0472
    --------------------------------------------
      LOOP:  cpu time  423.5056: real time  423.1535

 eigenvalue-minimisations  : 10976
 total energy-change (2. order) :-0.9493600E+00  (-0.9488342E+00)
 number of electron    1023.9999430 magnetization      57.4834660
 augmentation part      574.4235226 magnetization      45.9990162

 Broyden mixing:
  rms(total) = 0.67064E+01    rms(broyden)= 0.66971E+01
  rms(prec ) = 0.91768E+01
  weight for this iteration     100.00

 Free energy of the ion-electron system (eV)
  ---------------------------------------------------
  alpha Z        PSCENC =     10788.19976491
  Ewald energy   TEWEN  =   -158176.33604460
  -Hartree energ DENC   =    -59049.51858578
  -exchange      EXHF   =         0.00000000
  -V(xc)+E(xc)   XCENC  =      5740.20187869
  PAW double counting   =    172361.15642774  -181272.45834873
  entropy T*S    EENTRO =         0.09851437
  eigenvalues    EBANDS =    -14831.80539433
  atomic energy  EATOM  =    224013.29143063
  Solvation  Ediel_sol  =         0.00000000
  ---------------------------------------------------
  free energy    TOTEN  =      -427.17035709 eV

  energy without entropy =     -427.26887146  energy(sigma->0) =     -427.20319522


--------------------------------------------------------------------------------------------------------




----------------------------------------- Iteration    1(   6)  ---------------------------------------


    POTLOK:  cpu time    2.1437: real time    2.1413
    SETDIJ:  cpu time    0.3969: real time    0.3974
     EDDAV:  cpu time  402.0409: real time  401.7100
       DOS:  cpu time    0.0140: real time    0.0136
    CHARGE:  cpu time   15.8986: real time   15.8858
    MIXING:  cpu time    0.0490: real time    0.0496
    --------------------------------------------
      LOOP:  cpu time  420.5441: real time  420.1983

 eigenvalue-minimisations  : 10854
 total energy-change (2. order) : 0.4229314E+02  (-0.5272499E+02)
 number of electron    1023.9999350 magnetization      50.3024706
 augmentation part      624.7382623 magnetization      44.8379154

 Broyden mixing:
  rms(total) = 0.41008E+01    rms(broyden)= 0.40996E+01
  rms(prec ) = 0.51332E+01
  weight for this iteration     100.00

 eigenvalues of (default mixing * dielectric matrix)
  average eigenvalue GAMMA=   0.6012
  0.6012

 Free energy of the ion-electron system (eV)
  ---------------------------------------------------
  alpha Z        PSCENC =     10788.19976491
  Ewald energy   TEWEN  =   -158176.33604460
  -Hartree energ DENC   =    -56012.64846107
  -exchange      EXHF   =         0.00000000
  -V(xc)+E(xc)   XCENC  =      5622.02225285
  PAW double counting   =    168969.54561456  -177588.56700858
  entropy T*S    EENTRO =        -0.29684428
  eigenvalues    EBANDS =    -18000.08792099
  atomic energy  EATOM  =    224013.29143063
  Solvation  Ediel_sol  =         0.00000000
  ---------------------------------------------------
  free energy    TOTEN  =      -384.87721658 eV

  energy without entropy =     -384.58037230  energy(sigma->0) =     -384.77826849


--------------------------------------------------------------------------------------------------------




----------------------------------------- Iteration    1(   7)  ---------------------------------------


    POTLOK:  cpu time    2.1387: real time    2.1376
    SETDIJ:  cpu time    0.3969: real time    0.3968
     EDDAV:  cpu time  400.7361: real time  400.4031
       DOS:  cpu time    0.0150: real time    0.0147
    CHARGE:  cpu time   16.1106: real time   16.0975
    MIXING:  cpu time    0.0510: real time    0.0514
    --------------------------------------------
      LOOP:  cpu time  419.4502: real time  419.1018

 eigenvalue-minimisations  : 10800
 total energy-change (2. order) : 0.2026889E+02  (-0.8640392E+01)
 number of electron    1023.9999382 magnetization      42.7148852
 augmentation part      605.5424064 magnetization      35.2716714

 Broyden mixing:
  rms(total) = 0.58595E+00    rms(broyden)= 0.58476E+00
  rms(prec ) = 0.71702E+00
  weight for this iteration     100.00

 eigenvalues of (default mixing * dielectric matrix)
  average eigenvalue GAMMA=   0.9009
  1.1797  0.6221

 Free energy of the ion-electron system (eV)
  ---------------------------------------------------
  alpha Z        PSCENC =     10788.19976491
  Ewald energy   TEWEN  =   -158176.33604460
  -Hartree energ DENC   =    -56963.43676081
  -exchange      EXHF   =         0.00000000
  -V(xc)+E(xc)   XCENC  =      5658.06069122
  PAW double counting   =    171424.22829926  -180309.82032869
  entropy T*S    EENTRO =        -0.19093915
  eigenvalues    EBANDS =    -16798.60443783
  atomic energy  EATOM  =    224013.29143063
  Solvation  Ediel_sol  =         0.00000000
  ---------------------------------------------------
  free energy    TOTEN  =      -364.60832507 eV

  energy without entropy =     -364.41738592  energy(sigma->0) =     -364.54467868


--------------------------------------------------------------------------------------------------------




----------------------------------------- Iteration    1(   8)  ---------------------------------------


    POTLOK:  cpu time    2.1397: real time    2.1377
    SETDIJ:  cpu time    0.3969: real time    0.3968
     EDDAV:  cpu time  405.3894: real time  405.0521
       DOS:  cpu time    0.0150: real time    0.0149
    CHARGE:  cpu time   16.1485: real time   16.1363
    MIXING:  cpu time    0.0540: real time    0.0537
    --------------------------------------------
      LOOP:  cpu time  424.1445: real time  423.7923

 eigenvalue-minimisations  : 10968
 total energy-change (2. order) : 0.9899332E-01  (-0.7968067E-01)
 number of electron    1023.9999381 magnetization      38.7940030
 augmentation part      605.5203710 magnetization      32.7408964

 Broyden mixing:
  rms(total) = 0.25565E+00    rms(broyden)= 0.25554E+00
  rms(prec ) = 0.33102E+00
  weight for this iteration     100.00

 eigenvalues of (default mixing * dielectric matrix)
  average eigenvalue GAMMA=   1.1868
  0.6391  0.8440  2.0774

 Free energy of the ion-electron system (eV)
  ---------------------------------------------------
  alpha Z        PSCENC =     10788.19976491
  Ewald energy   TEWEN  =   -158176.33604460
  -Hartree energ DENC   =    -56804.06077735
  -exchange      EXHF   =         0.00000000
  -V(xc)+E(xc)   XCENC  =      5652.29697215
  PAW double counting   =    172547.79393115  -181551.28121848
  entropy T*S    EENTRO =        -0.25306557
  eigenvalues    EBANDS =    -16834.16032458
  atomic energy  EATOM  =    224013.29143063
  Solvation  Ediel_sol  =         0.00000000
  ---------------------------------------------------
  free energy    TOTEN  =      -364.50933174 eV

  energy without entropy =     -364.25626617  energy(sigma->0) =     -364.42497655


--------------------------------------------------------------------------------------------------------




----------------------------------------- Iteration    1(   9)  ---------------------------------------


    POTLOK:  cpu time    2.1557: real time    2.1547
    SETDIJ:  cpu time    0.3969: real time    0.3968
     EDDAV:  cpu time  419.2343: real time  418.8860
       DOS:  cpu time    0.0150: real time    0.0144
    CHARGE:  cpu time   16.1455: real time   16.1323
    MIXING:  cpu time    0.0560: real time    0.0558
    --------------------------------------------
      LOOP:  cpu time  438.0044: real time  437.6406

 eigenvalue-minimisations  : 11496
 total energy-change (2. order) : 0.6683992E-01  (-0.9238537E-02)
 number of electron    1023.9999380 magnetization      38.6183057
 augmentation part      606.0922381 magnetization      33.3455816

 Broyden mixing:
  rms(total) = 0.54931E-01    rms(broyden)= 0.54888E-01
  rms(prec ) = 0.56671E-01
  weight for this iteration     100.00

 eigenvalues of (default mixing * dielectric matrix)
  average eigenvalue GAMMA=   1.1294
  2.3234  0.9259  0.6341  0.6341

 Free energy of the ion-electron system (eV)
  ---------------------------------------------------
  alpha Z        PSCENC =     10788.19976491
  Ewald energy   TEWEN  =   -158176.33604460
  -Hartree energ DENC   =    -56686.24478555
  -exchange      EXHF   =         0.00000000
  -V(xc)+E(xc)   XCENC  =      5647.99721064
  PAW double counting   =    173239.62145322  -182305.69661723
  entropy T*S    EENTRO =        -0.27567674
  eigenvalues    EBANDS =    -16884.99922710
  atomic energy  EATOM  =    224013.29143063
  Solvation  Ediel_sol  =         0.00000000
  ---------------------------------------------------
  free energy    TOTEN  =      -364.44249182 eV

  energy without entropy =     -364.16681508  energy(sigma->0) =     -364.35059957


--------------------------------------------------------------------------------------------------------




----------------------------------------- Iteration    1(  10)  ---------------------------------------


    POTLOK:  cpu time    2.1357: real time    2.1336
    SETDIJ:  cpu time    0.3969: real time    0.3968
     EDDAV:  cpu time  406.6392: real time  406.3011
       DOS:  cpu time    0.0150: real time    0.0146
    CHARGE:  cpu time   16.1475: real time   16.1342
    MIXING:  cpu time    0.0580: real time    0.0584
    --------------------------------------------
      LOOP:  cpu time  425.3923: real time  425.0394

 eigenvalue-minimisations  : 11054
 total energy-change (2. order) :-0.3277757E-02  (-0.7412533E-03)
 number of electron    1023.9999380 magnetization      38.6769823
 augmentation part      606.0954745 magnetization      33.3994631

 Broyden mixing:
  rms(total) = 0.21115E-01    rms(broyden)= 0.21092E-01
  rms(prec ) = 0.22577E-01
  weight for this iteration     100.00

 eigenvalues of (default mixing * dielectric matrix)
  average eigenvalue GAMMA=   1.1781
  2.3759  1.1270  1.1270  0.6302  0.6302

 Free energy of the ion-electron system (eV)
  ---------------------------------------------------
  alpha Z        PSCENC =     10788.19976491
  Ewald energy   TEWEN  =   -158176.33604460
  -Hartree energ DENC   =    -56679.96281963
  -exchange      EXHF   =         0.00000000
  -V(xc)+E(xc)   XCENC  =      5647.77920520
  PAW double counting   =    173346.40847275  -182416.81120636
  entropy T*S    EENTRO =        -0.27622747
  eigenvalues    EBANDS =    -16886.73834501
  atomic energy  EATOM  =    224013.29143063
  Solvation  Ediel_sol  =         0.00000000
  ---------------------------------------------------
  free energy    TOTEN  =      -364.44576958 eV

  energy without entropy =     -364.16954211  energy(sigma->0) =     -364.35369376


--------------------------------------------------------------------------------------------------------




----------------------------------------- Iteration    1(  11)  ---------------------------------------


    POTLOK:  cpu time    2.1367: real time    2.1357
    SETDIJ:  cpu time    0.3969: real time    0.3968
     EDDAV:  cpu time  404.7185: real time  404.3820
       DOS:  cpu time    0.0150: real time    0.0147
    CHARGE:  cpu time   18.8501: real time   18.8339
    MIXING:  cpu time    0.0610: real time    0.0611
    --------------------------------------------
      LOOP:  cpu time  426.1792: real time  425.8248

 eigenvalue-minimisations  : 11008
 total energy-change (2. order) :-0.7598812E-03  (-0.1507230E-03)
 number of electron    1023.9999380 magnetization      38.6168970
 augmentation part      606.0592109 magnetization      33.3012842

 Broyden mixing:
  rms(total) = 0.63727E-02    rms(broyden)= 0.63514E-02
  rms(prec ) = 0.68622E-02
  weight for this iteration     100.00

 eigenvalues of (default mixing * dielectric matrix)
  average eigenvalue GAMMA=   1.1499
  2.4254  1.3067  1.1271  0.7726  0.6339  0.6339

 Free energy of the ion-electron system (eV)
  ---------------------------------------------------
  alpha Z        PSCENC =     10788.19976491
  Ewald energy   TEWEN  =   -158176.33604460
  -Hartree energ DENC   =    -56682.56526081
  -exchange      EXHF   =         0.00000000
  -V(xc)+E(xc)   XCENC  =      5647.84767538
  PAW double counting   =    173434.36406717  -182504.31561109
  entropy T*S    EENTRO =        -0.27652777
  eigenvalues    EBANDS =    -16884.65602327
  atomic energy  EATOM  =    224013.29143063
  Solvation  Ediel_sol  =         0.00000000
  ---------------------------------------------------
  free energy    TOTEN  =      -364.44652946 eV

  energy without entropy =     -364.17000169  energy(sigma->0) =     -364.35435354


--------------------------------------------------------------------------------------------------------




----------------------------------------- Iteration    1(  12)  ---------------------------------------


    POTLOK:  cpu time    2.1377: real time    2.1355
    SETDIJ:  cpu time    0.3969: real time    0.3968
     EDDAV:  cpu time  397.2566: real time  396.9275
       DOS:  cpu time    0.0150: real time    0.0149
    CHARGE:  cpu time   18.8201: real time   18.8034
    MIXING:  cpu time    0.0630: real time    0.0636
    --------------------------------------------
      LOOP:  cpu time  418.6903: real time  418.3425

 eigenvalue-minimisations  : 10688
 total energy-change (2. order) :-0.1020852E-03  (-0.1601056E-04)
 number of electron    1023.9999380 magnetization      38.5682739
 augmentation part      606.0777896 magnetization      33.2593974

 Broyden mixing:
  rms(total) = 0.46130E-02    rms(broyden)= 0.46086E-02
  rms(prec ) = 0.53108E-02
  weight for this iteration     100.00

 eigenvalues of (default mixing * dielectric matrix)
  average eigenvalue GAMMA=   1.2322
  2.5033  1.6046  1.6046  0.9819  0.6572  0.6572  0.6163

 Free energy of the ion-electron system (eV)
  ---------------------------------------------------
  alpha Z        PSCENC =     10788.19976491
  Ewald energy   TEWEN  =   -158176.33604460
  -Hartree energ DENC   =    -56681.78282289
  -exchange      EXHF   =         0.00000000
  -V(xc)+E(xc)   XCENC  =      5647.80818960
  PAW double counting   =    173470.14392583  -182539.65590367
  entropy T*S    EENTRO =        -0.27720205
  eigenvalues    EBANDS =    -16885.83796930
  atomic energy  EATOM  =    224013.29143063
  Solvation  Ediel_sol  =         0.00000000
  ---------------------------------------------------
  free energy    TOTEN  =      -364.44663155 eV

  energy without entropy =     -364.16942950  energy(sigma->0) =     -364.35423086


--------------------------------------------------------------------------------------------------------




----------------------------------------- Iteration    1(  13)  ---------------------------------------


    POTLOK:  cpu time    2.1377: real time    2.1364
    SETDIJ:  cpu time    0.3979: real time    0.3969
     EDDAV:  cpu time  368.5970: real time  368.2903
       DOS:  cpu time    0.0130: real time    0.0136
    CHARGE:  cpu time   18.8511: real time   18.8355
    MIXING:  cpu time    0.0660: real time    0.0665
    --------------------------------------------
      LOOP:  cpu time  390.0637: real time  389.7400

 eigenvalue-minimisations  :  9724
 total energy-change (2. order) : 0.1321078E-04  (-0.1036148E-05)
 number of electron    1023.9999380 magnetization      38.5501672
 augmentation part      606.0790137 magnetization      33.2470051

 Broyden mixing:
  rms(total) = 0.22900E-02    rms(broyden)= 0.22895E-02
  rms(prec ) = 0.30948E-02
  weight for this iteration     100.00

 eigenvalues of (default mixing * dielectric matrix)
  average eigenvalue GAMMA=   1.2951
  2.5172  2.2139  1.7909  1.0162  0.6305  0.6305  0.7807  0.7807

 Free energy of the ion-electron system (eV)
  ---------------------------------------------------
  alpha Z        PSCENC =     10788.19976491
  Ewald energy   TEWEN  =   -158176.33604460
  -Hartree energ DENC   =    -56682.50743860
  -exchange      EXHF   =         0.00000000
  -V(xc)+E(xc)   XCENC  =      5647.82795471
  PAW double counting   =    173488.83986698  -182557.63672194
  entropy T*S    EENTRO =        -0.27731982
  eigenvalues    EBANDS =    -16885.84811062
  atomic energy  EATOM  =    224013.29143063
  Solvation  Ediel_sol  =         0.00000000
  ---------------------------------------------------
  free energy    TOTEN  =      -364.44661833 eV

  energy without entropy =     -364.16929852  energy(sigma->0) =     -364.35417840


--------------------------------------------------------------------------------------------------------




----------------------------------------- Iteration    1(  14)  ---------------------------------------


    POTLOK:  cpu time    2.1377: real time    2.1361
    SETDIJ:  cpu time    0.3979: real time    0.3967
     EDDAV:  cpu time  360.5192: real time  360.2202
       DOS:  cpu time    0.0150: real time    0.0146
    CHARGE:  cpu time   18.8531: real time   18.8369
    MIXING:  cpu time    0.0690: real time    0.0697
    --------------------------------------------
      LOOP:  cpu time  381.9919: real time  381.6749

 eigenvalue-minimisations  :  9434
 total energy-change (2. order) : 0.3303305E-04  (-0.1201112E-05)
 number of electron    1023.9999380 magnetization      38.5487245
 augmentation part      606.0718710 magnetization      33.2477681

 Broyden mixing:
  rms(total) = 0.37215E-03    rms(broyden)= 0.36791E-03
  rms(prec ) = 0.45002E-03
  weight for this iteration     100.00

 eigenvalues of (default mixing * dielectric matrix)
  average eigenvalue GAMMA=   1.2641
  2.5642  2.4550  1.7238  1.0402  0.8436  0.8436  0.6391  0.6391  0.6281

 Free energy of the ion-electron system (eV)
  ---------------------------------------------------
  alpha Z        PSCENC =     10788.19976491
  Ewald energy   TEWEN  =   -158176.33604460
  -Hartree energ DENC   =    -56683.51201297
  -exchange      EXHF   =         0.00000000
  -V(xc)+E(xc)   XCENC  =      5647.86339152
  PAW double counting   =    173494.34511989  -182562.70062265
  entropy T*S    EENTRO =        -0.27728956
  eigenvalues    EBANDS =    -16885.32032246
  atomic energy  EATOM  =    224013.29143063
  Solvation  Ediel_sol  =         0.00000000
  ---------------------------------------------------
  free energy    TOTEN  =      -364.44658530 eV

  energy without entropy =     -364.16929574  energy(sigma->0) =     -364.35415545


--------------------------------------------------------------------------------------------------------




----------------------------------------- Iteration    1(  15)  ---------------------------------------


    POTLOK:  cpu time    2.1387: real time    2.1374
    SETDIJ:  cpu time    0.3969: real time    0.3968
     EDDAV:  cpu time  246.8185: real time  246.6132
       DOS:  cpu time    0.0150: real time    0.0149
    CHARGE:  cpu time   18.8531: real time   18.8367
    MIXING:  cpu time    0.0730: real time    0.0732
    --------------------------------------------
      LOOP:  cpu time  268.2962: real time  268.0729

 eigenvalue-minimisations  :  5452
 total energy-change (2. order) : 0.3139954E-05  (-0.6285542E-07)
 number of electron    1023.9999380 magnetization      38.5493918
 augmentation part      606.0706797 magnetization      33.2483588

 Broyden mixing:
  rms(total) = 0.90105E-04    rms(broyden)= 0.88593E-04
  rms(prec ) = 0.90826E-04
  weight for this iteration     100.00

 eigenvalues of (default mixing * dielectric matrix)
  average eigenvalue GAMMA=   1.2329
  2.6026  2.4519  1.6716  1.1588  0.9125  0.9125  0.7264  0.6358  0.6358  0.6207

 Free energy of the ion-electron system (eV)
  ---------------------------------------------------
  alpha Z        PSCENC =     10788.19976491
  Ewald energy   TEWEN  =   -158176.33604460
  -Hartree energ DENC   =    -56683.63924217
  -exchange      EXHF   =         0.00000000
  -V(xc)+E(xc)   XCENC  =      5647.86788165
  PAW double counting   =    173494.78285461  -182563.09286474
  entropy T*S    EENTRO =        -0.27728112
  eigenvalues    EBANDS =    -16885.24308133
  atomic energy  EATOM  =    224013.29143063
  Solvation  Ediel_sol  =         0.00000000
  ---------------------------------------------------
  free energy    TOTEN  =      -364.44658216 eV

  energy without entropy =     -364.16930104  energy(sigma->0) =     -364.35415512


--------------------------------------------------------------------------------------------------------




----------------------------------------- Iteration    1(  16)  ---------------------------------------


    POTLOK:  cpu time    2.1367: real time    2.1357
    SETDIJ:  cpu time    0.3969: real time    0.3968
     EDDAV:  cpu time  247.9883: real time  247.7821
       DOS:  cpu time    0.0140: real time    0.0144
    --------------------------------------------
      LOOP:  cpu time  250.5379: real time  250.3306

 eigenvalue-minimisations  :  5420
 total energy-change (2. order) :-0.4403410E-06  (-0.7843070E-08)
 number of electron    1023.9999380 magnetization      38.5493918
 augmentation part      606.0706797 magnetization      33.2483588

 Free energy of the ion-electron system (eV)
  ---------------------------------------------------
  alpha Z        PSCENC =     10788.19976491
  Ewald energy   TEWEN  =   -158176.33604460
  -Hartree energ DENC   =    -56683.63536868
  -exchange      EXHF   =         0.00000000
  -V(xc)+E(xc)   XCENC  =      5647.86786048
  PAW double counting   =    173494.63968671  -182562.95125023
  entropy T*S    EENTRO =        -0.27727573
  eigenvalues    EBANDS =    -16885.24538610
  atomic energy  EATOM  =    224013.29143063
  Solvation  Ediel_sol  =         0.00000000
  ---------------------------------------------------
  free energy    TOTEN  =      -364.44658260 eV

  energy without entropy =     -364.16930688  energy(sigma->0) =     -364.35415736


--------------------------------------------------------------------------------------------------------




 average (electrostatic) potential at core
  the test charge radii are     0.8614
  (the norm of the test charge is              1.0000)
       1 -78.4102       2 -78.4102       3 -78.4102       4 -78.4102       5 -78.4102
       6 -78.4102       7 -78.4102       8 -78.4102       9 -78.4102      10 -78.4102
      11 -78.4102      12 -78.4102      13 -78.4102      14 -78.4102      15 -78.4102
      16 -78.4102      17 -78.4102      18 -78.4102      19 -78.4102      20 -78.4102
      21 -78.4102      22 -78.4102      23 -78.4102      24 -78.4102      25 -78.4102
      26 -78.4102      27 -78.4102      28 -78.4102      29 -78.4102      30 -78.4102
      31 -78.4102      32 -78.4102      33 -78.4102      34 -78.4102      35 -78.4102
      36 -78.4102      37 -78.4102      38 -78.4102      39 -78.4102      40 -78.4102
      41 -78.4102      42 -78.4102      43 -78.4102      44 -78.4102      45 -78.4102
      46 -78.4102      47 -78.4102      48 -78.4102      49 -78.4102      50 -78.4102
      51 -78.4102      52 -78.4102      53 -78.4102      54 -78.4102      55 -78.4102
      56 -78.4102      57 -78.4102      58 -78.4102      59 -78.4102      60 -78.4102
      61 -78.4102      62 -78.4102      63 -78.4102      64 -78.4102
 
 
 
 E-fermi :   8.9837     XC(G=0): -14.3315     alpha+bet :-16.2013


 spin component 1

 k-point     1 :       0.0000    0.0000    0.0000
  band No.  band energies     occupation 
      1     -55.2326      1.00000
      2     -55.2326      1.00000
      3     -55.2326      1.00000
      4     -55.2326      1.00000
      5     -55.2005      1.00000
      6     -55.2005      1.00000
      7     -55.2005      1.00000
      8     -55.1826      1.00000
      9     -55.1826      1.00000
     10     -55.1826      1.00000
     11     -55.1826      1.00000
     12     -55.1826      1.00000
     13     -55.1826      1.00000
     14     -55.1826      1.00000
     15     -55.1826      1.00000
     16     -55.1826      1.00000
     17     -55.1826      1.00000
     18     -55.1826      1.00000
     19     -55.1826      1.00000
     20     -55.1826      1.00000
     21     -55.1826      1.00000
     22     -55.1826      1.00000
     23     -55.1826      1.00000
     24     -55.1826      1.00000
     25     -55.1826      1.00000
     26     -55.1826      1.00000
     27     -55.1826      1.00000
     28     -55.1826      1.00000
     29     -55.1826      1.00000
     30     -55.1826      1.00000
     31     -55.1826      1.00000
     32     -55.1525      1.00000
     33     -55.1525      1.00000
     34     -55.1525      1.00000
     35     -55.1525      1.00000
     36     -55.1525      1.00000
     37     -55.1525      1.00000
     38     -55.1525      1.00000
     39     -55.1525      1.00000
     40     -55.1525      1.00000
     41     -55.1525      1.00000
     42     -55.1525      1.00000
     43     -55.1525      1.00000
     44     -55.1273      1.00000
     45     -55.1273      1.00000
     46     -55.1273      1.00000
     47     -55.1273      1.00000
     48     -55.1273      1.00000
     49     -55.1273      1.00000
     50     -55.1273      1.00000
     51     -55.1273      1.00000
     52     -55.1273      1.00000
     53     -55.1273      1.00000
     54     -55.1273      1.00000
     55     -55.1273      1.00000
     56     -55.0854      1.00000
     57     -55.0854      1.00000
     58     -55.0854      1.00000
     59     -55.0854      1.00000
     60     -55.0854      1.00000
     61     -55.0854      1.00000
     62     -55.0854      1.00000
     63     -55.0854      1.00000
     64     -55.0828      1.00000
     65     -55.0828      1.00000
     66     -55.0828      1.00000
     67     -55.0828      1.00000
     68     -55.0828      1.00000
     69     -55.0828      1.00000
     70     -55.0657      1.00000
     71     -55.0657      1.00000
     72     -55.0657      1.00000
     73     -55.0657      1.00000
     74     -55.0657      1.00000
     75     -55.0657      1.00000
     76     -55.0657      1.00000
     77     -55.0657      1.00000
     78     -55.0657      1.00000
     79     -55.0657      1.00000
     80     -55.0657      1.00000
     81     -55.0657      1.00000
     82     -55.0497      1.00000
     83     -55.0497      1.00000
     84     -55.0497      1.00000
     85     -55.0497      1.00000
     86     -55.0497      1.00000
     87     -55.0497      1.00000
     88     -55.0497      1.00000
     89     -55.0497      1.00000
     90     -55.0497      1.00000
     91     -55.0497      1.00000
     92     -55.0497      1.00000
     93     -55.0497      1.00000
     94     -55.0497      1.00000
     95     -55.0497      1.00000
     96     -55.0497      1.00000
     97     -55.0497      1.00000
     98     -55.0497      1.00000
     99     -55.0497      1.00000
    100     -55.0497      1.00000
    101     -55.0497      1.00000
    102     -55.0497      1.00000
    103     -55.0497      1.00000
    104     -55.0497      1.00000
    105     -55.0497      1.00000
    106     -55.0469      1.00000
    107     -55.0469      1.00000
    108     -55.0469      1.00000
    109     -55.0469      1.00000
    110     -55.0469      1.00000
    111     -55.0469      1.00000
    112     -55.0377      1.00000
    113     -55.0377      1.00000
    114     -55.0377      1.00000
    115     -55.0377      1.00000
    116     -55.0377      1.00000
    117     -55.0377      1.00000
    118     -55.0119      1.00000
    119     -55.0119      1.00000
    120     -55.0119      1.00000
    121     -55.0119      1.00000
    122     -55.0119      1.00000
    123     -55.0119      1.00000
    124     -55.0119      1.00000
    125     -55.0119      1.00000
    126     -55.0119      1.00000
    127     -55.0119      1.00000
    128     -55.0119      1.00000
    129     -55.0119      1.00000
    130     -55.0119      1.00000
    131     -55.0119      1.00000
    132     -55.0119      1.00000
    133     -55.0119      1.00000
    134     -55.0119      1.00000
    135     -55.0119      1.00000
    136     -55.0119      1.00000
    137     -55.0119      1.00000
    138     -55.0119      1.00000
    139     -55.0119      1.00000
    140     -55.0119      1.00000
    141     -55.0119      1.00000
    142     -55.0002      1.00000
    143     -55.0002      1.00000
    144     -55.0002      1.00000
    145     -55.0002      1.00000
    146     -55.0002      1.00000
    147     -55.0002      1.00000
    148     -55.0001      1.00000
    149     -55.0001      1.00000
    150     -55.0001      1.00000
    151     -55.0001      1.00000
    152     -55.0001      1.00000
    153     -55.0001      1.00000
    154     -54.9859      1.00000
    155     -54.9859      1.00000
    156     -54.9859      1.00000
    157     -54.9859      1.00000
    158     -54.9859      1.00000
    159     -54.9859      1.00000
    160     -54.9859      1.00000
    161     -54.9859      1.00000
    162     -54.9859      1.00000
    163     -54.9859      1.00000
    164     -54.9859      1.00000
    165     -54.9859      1.00000
    166     -54.9778      1.00000
    167     -54.9778      1.00000
    168     -54.9778      1.00000
    169     -54.9777      1.00000
    170     -54.9777      1.00000
    171     -54.9777      1.00000
    172     -54.9777      1.00000
    173     -54.9777      1.00000
    174     -54.9590      1.00000
    175     -54.9590      1.00000
    176     -54.9590      1.00000
    177     -54.9590      1.00000
    178     -54.9590      1.00000
    179     -54.9590      1.00000
    180     -54.9589      1.00000
    181     -54.9589      1.00000
    182     -54.9589      1.00000
    183     -54.9589      1.00000
    184     -54.9589      1.00000
    185     -54.9589      1.00000
    186     -54.9589      1.00000
    187     -54.9589      1.00000
    188     -54.9589      1.00000
    189     -54.9589      1.00000
    190     -54.9484      1.00000
    191     -54.9484      1.00000
    192     -54.9484      1.00000
    193      -0.6790      1.00000
    194       1.6785      1.00000
    195       1.6785      1.00000
    196       1.6786      1.00000
    197       1.6786      1.00000
    198       1.6786      1.00000
    199       1.6786      1.00000
    200       1.6786      1.00000
    201       1.6786      1.00000
    202       2.3580      1.00000
    203       2.3580      1.00000
    204       2.3580      1.00000
    205       2.3580      1.00000
    206       2.3580      1.00000
    207       2.3580      1.00000
    208       3.6404      1.00000
    209       3.6405      1.00000
    210       3.6405      1.00000
    211       3.6405      1.00000
    212       3.7675      1.00000
    213       3.7675      1.00000
    214       3.7675      1.00000
    215       4.3090      1.00000
    216       4.3090      1.00000
    217       4.3090      1.00000
    218       4.3458      1.00000
    219       4.3458      1.00000
    220       4.3458      1.00000
    221       4.3458      1.00000
    222       4.3458      1.00000
    223       4.3458      1.00000
    224       4.3458      1.00000
    225       4.3458      1.00000
    226       4.3458      1.00000
    227       4.3458      1.00000
    228       4.3458      1.00000
    229       4.3458      1.00000
    230       4.4390      1.00000
    231       4.4390      1.00000
    232       4.4390      1.00000
    233       4.4390      1.00000
    234       4.4390      1.00000
    235       4.4390      1.00000
    236       4.4390      1.00000
    237       4.4390      1.00000
    238       4.4390      1.00000
    239       4.4390      1.00000
    240       4.4390      1.00000
    241       4.4390      1.00000
    242       4.4390      1.00000
    243       4.4390      1.00000
    244       4.4390      1.00000
    245       4.4390      1.00000
    246       4.4390      1.00000
    247       4.4390      1.00000
    248       4.4390      1.00000
    249       4.4390      1.00000
    250       4.4390      1.00000
    251       4.4390      1.00000
    252       4.4390      1.00000
    253       4.4390      1.00000
    254       4.7546      1.00000
    255       4.7546      1.00000
    256       4.7546      1.00000
    257       4.7546      1.00000
    258       4.7546      1.00000
    259       4.7546      1.00000
    260       5.1383      1.00000
    261       5.1383      1.00000
    262       5.1383      1.00000
    263       5.1383      1.00000
    264       5.1383      1.00000
    265       5.1383      1.00000
    266       5.1383      1.00000
    267       5.1383      1.00000
    268       5.1383      1.00000
    269       5.1383      1.00000
    270       5.1383      1.00000
    271       5.1383      1.00000
    272       5.1384      1.00000
    273       5.1384      1.00000
    274       5.1384      1.00000
    275       5.1384      1.00000
    276       5.1384      1.00000
    277       5.1384      1.00000
    278       5.1384      1.00000
    279       5.1384      1.00000
    280       5.1384      1.00000
    281       5.1384      1.00000
    282       5.1384      1.00000
    283       5.1384      1.00000
    284       5.2722      1.00000
    285       5.2722      1.00000
    286       5.2722      1.00000
    287       5.2722      1.00000
    288       5.2722      1.00000
    289       5.2722      1.00000
    290       5.5914      1.00000
    291       5.5914      1.00000
    292       5.5914      1.00000
    293       5.5914      1.00000
    294       5.5914      1.00000
    295       5.5914      1.00000
    296       5.5914      1.00000
    297       5.5914      1.00000
    298       5.5914      1.00000
    299       5.5914      1.00000
    300       5.5914      1.00000
    301       5.5914      1.00000
    302       5.5919      1.00000
    303       5.5919      1.00000
    304       5.5919      1.00000
    305       5.5919      1.00000
    306       5.5919      1.00000
    307       5.5919      1.00000
    308       5.5919      1.00000
    309       5.5919      1.00000
    310       5.5919      1.00000
    311       5.5919      1.00000
    312       5.5919      1.00000
    313       5.5919      1.00000
    314       5.9200      1.00000
    315       5.9200      1.00000
    316       5.9200      1.00000
    317       5.9200      1.00000
    318       5.9200      1.00000
    319       5.9200      1.00000
    320       5.9200      1.00000
    321       5.9200      1.00000
    322       5.9200      1.00000
    323       5.9200      1.00000
    324       5.9200      1.00000
    325       5.9200      1.00000
    326       5.9536      1.00000
    327       5.9536      1.00000
[...]
      6.838500  3.419250  3.419250    -0.002052   -0.001469   -0.124975  
      8.548125  5.128875  3.419250    -0.002052   -0.001469   -0.124975  
      5.128875  0.000000  5.128875    -0.002052   -0.001469   -0.124975  
      6.838500  1.709625  5.128875    -0.002052   -0.001469   -0.124975  
      8.548125  3.419250  5.128875    -0.002052   -0.001469   -0.124975  
     10.257750  5.128875  5.128875    -0.002052   -0.001469   -0.124975  
      0.000000  1.709625  1.709625    -0.002052   -0.001469   -0.124975  
      1.709625  3.419250  1.709625    -0.002052   -0.001469   -0.124975  
      3.419250  5.128875  1.709625    -0.002052   -0.001469   -0.124975  
      5.128875  6.838500  1.709625    -0.002052   -0.001469   -0.124975  
      1.709625  1.709625  3.419250    -0.002052   -0.001469   -0.124975  
      3.419250  3.419250  3.419250    -0.002052   -0.001469   -0.124975  
      5.128875  5.128875  3.419250    -0.002052   -0.001469   -0.124975  
      6.838500  6.838500  3.419250    -0.002052   -0.001469   -0.124975  
      3.419250  1.709625  5.128875    -0.002052   -0.001469   -0.124975  
      5.128875  3.419250  5.128875    -0.002052   -0.001469   -0.124975  
      6.838500  5.128875  5.128875    -0.002052   -0.001469   -0.124975  
      8.548125  6.838500  5.128875    -0.002052   -0.001469   -0.124975  
      5.128875  1.709625  6.838500    -0.002052   -0.001469   -0.124975  
      6.838500  3.419250  6.838500    -0.002052   -0.001469   -0.124975  
      8.548125  5.128875  6.838500    -0.002052   -0.001469   -0.124975  
     10.257750  6.838500  6.838500    -0.002052   -0.001469   -0.124975  
      0.000000  3.419250  3.419250    -0.002052   -0.001469   -0.124975  
      1.709625  5.128875  3.419250    -0.002052   -0.001469   -0.124975  
      3.419250  6.838500  3.419250    -0.002052   -0.001469   -0.124975  
      5.128875  8.548125  3.419250    -0.002052   -0.001469   -0.124975  
      1.709625  3.419250  5.128875    -0.002052   -0.001469   -0.124975  
      3.419250  5.128875  5.128875    -0.002052   -0.001469   -0.124975  
      5.128875  6.838500  5.128875    -0.002052   -0.001469   -0.124975  
      6.838500  8.548125  5.128875    -0.002052   -0.001469   -0.124975  
      3.419250  3.419250  6.838500    -0.002052   -0.001469   -0.124975  
      5.128875  5.128875  6.838500    -0.002052   -0.001469   -0.124975  
      6.838500  6.838500  6.838500    -0.002052   -0.001469   -0.124975  
      8.548125  8.548125  6.838500    -0.002052   -0.001469   -0.124975  
      5.128875  3.419250  8.548125    -0.002052   -0.001469   -0.124975  
      6.838500  5.128875  8.548125    -0.002052   -0.001469   -0.124975  
      8.548125  6.838500  8.548125    -0.002052   -0.001469   -0.124975  
     10.257750  8.548125  8.548125    -0.002052   -0.001469   -0.124975  
      0.000000  5.128875  5.128875    -0.002052   -0.001469   -0.124975  
      1.709625  6.838500  5.128875    -0.002052   -0.001469   -0.124975  
      3.419250  8.548125  5.128875    -0.002052   -0.001469   -0.124975  
      5.128875 10.257750  5.128875    -0.002052   -0.001469   -0.124975  
      1.709625  5.128875  6.838500    -0.002052   -0.001469   -0.124975  
      3.419250  6.838500  6.838500    -0.002052   -0.001469   -0.124975  
      5.128875  8.548125  6.838500    -0.002052   -0.001469   -0.124975  
      6.838500 10.257750  6.838500    -0.002052   -0.001469   -0.124975  
      3.419250  5.128875  8.548125    -0.002052   -0.001469   -0.124975  
      5.128875  6.838500  8.548125    -0.002052   -0.001469   -0.124975  
      6.838500  8.548125  8.548125    -0.002052   -0.001469   -0.124975  
      8.548125 10.257750  8.548125    -0.002052   -0.001469   -0.124975  
      5.128875  5.128875 10.257750    -0.002052   -0.001469   -0.124975  
      6.838500  6.838500 10.257750    -0.002052   -0.001469   -0.124975  
      8.548125  8.548125 10.257750    -0.002052   -0.001469   -0.124975  
     10.257750 10.257750 10.257750    -0.002052   -0.001469   -0.124975  
 
 192 f/i=    0.000002 THz     0.000013 2PiTHz    0.000069 cm-1     0.000009 meV
             X         Y         Z           dx          dy          dz
      0.000000  0.000000  0.000000     0.073811   -0.100881   -0.000026  
      1.709625  1.709625  0.000000     0.073811   -0.100881   -0.000026  
      3.419250  3.419250  0.000000     0.073811   -0.100881   -0.000026  
      5.128875  5.128875  0.000000     0.073811   -0.100881   -0.000026  
      1.709625  0.000000  1.709625     0.073811   -0.100881   -0.000026  
      3.419250  1.709625  1.709625     0.073811   -0.100881   -0.000026  
      5.128875  3.419250  1.709625     0.073811   -0.100881   -0.000026  
      6.838500  5.128875  1.709625     0.073811   -0.100881   -0.000026  
      3.419250  0.000000  3.419250     0.073811   -0.100881   -0.000026  
      5.128875  1.709625  3.419250     0.073811   -0.100881   -0.000026  
      6.838500  3.419250  3.419250     0.073811   -0.100881   -0.000026  
      8.548125  5.128875  3.419250     0.073811   -0.100881   -0.000026  
      5.128875  0.000000  5.128875     0.073811   -0.100881   -0.000026  
      6.838500  1.709625  5.128875     0.073811   -0.100881   -0.000026  
      8.548125  3.419250  5.128875     0.073811   -0.100881   -0.000026  
     10.257750  5.128875  5.128875     0.073811   -0.100881   -0.000026  
      0.000000  1.709625  1.709625     0.073811   -0.100881   -0.000026  
      1.709625  3.419250  1.709625     0.073811   -0.100881   -0.000026  
      3.419250  5.128875  1.709625     0.073811   -0.100881   -0.000026  
      5.128875  6.838500  1.709625     0.073811   -0.100881   -0.000026  
      1.709625  1.709625  3.419250     0.073811   -0.100881   -0.000026  
      3.419250  3.419250  3.419250     0.073811   -0.100881   -0.000026  
      5.128875  5.128875  3.419250     0.073811   -0.100881   -0.000026  
      6.838500  6.838500  3.419250     0.073811   -0.100881   -0.000026  
      3.419250  1.709625  5.128875     0.073811   -0.100881   -0.000026  
      5.128875  3.419250  5.128875     0.073811   -0.100881   -0.000026  
      6.838500  5.128875  5.128875     0.073811   -0.100881   -0.000026  
      8.548125  6.838500  5.128875     0.073811   -0.100881   -0.000026  
      5.128875  1.709625  6.838500     0.073811   -0.100881   -0.000026  
      6.838500  3.419250  6.838500     0.073811   -0.100881   -0.000026  
      8.548125  5.128875  6.838500     0.073811   -0.100881   -0.000026  
     10.257750  6.838500  6.838500     0.073811   -0.100881   -0.000026  
      0.000000  3.419250  3.419250     0.073811   -0.100881   -0.000026  
      1.709625  5.128875  3.419250     0.073811   -0.100881   -0.000026  
      3.419250  6.838500  3.419250     0.073811   -0.100881   -0.000026  
      5.128875  8.548125  3.419250     0.073811   -0.100881   -0.000026  
      1.709625  3.419250  5.128875     0.073811   -0.100881   -0.000026  
      3.419250  5.128875  5.128875     0.073811   -0.100881   -0.000026  
      5.128875  6.838500  5.128875     0.073811   -0.100881   -0.000026  
      6.838500  8.548125  5.128875     0.073811   -0.100881   -0.000026  
      3.419250  3.419250  6.838500     0.073811   -0.100881   -0.000026  
      5.128875  5.128875  6.838500     0.073811   -0.100881   -0.000026  
      6.838500  6.838500  6.838500     0.073811   -0.100881   -0.000026  
      8.548125  8.548125  6.838500     0.073811   -0.100881   -0.000026  
      5.128875  3.419250  8.548125     0.073811   -0.100881   -0.000026  
      6.838500  5.128875  8.548125     0.073811   -0.100881   -0.000026  
      8.548125  6.838500  8.548125     0.073811   -0.100881   -0.000026  
     10.257750  8.548125  8.548125     0.073811   -0.100881   -0.000026  
      0.000000  5.128875  5.128875     0.073811   -0.100881   -0.000026  
      1.709625  6.838500  5.128875     0.073811   -0.100881   -0.000026  
      3.419250  8.548125  5.128875     0.073811   -0.100881   -0.000026  
      5.128875 10.257750  5.128875     0.073811   -0.100881   -0.000026  
      1.709625  5.128875  6.838500     0.073811   -0.100881   -0.000026  
      3.419250  6.838500  6.838500     0.073811   -0.100881   -0.000026  
      5.128875  8.548125  6.838500     0.073811   -0.100881   -0.000026  
      6.838500 10.257750  6.838500     0.073811   -0.100881   -0.000026  
      3.419250  5.128875  8.548125     0.073811   -0.100881   -0.000026  
      5.128875  6.838500  8.548125     0.073811   -0.100881   -0.000026  
      6.838500  8.548125  8.548125     0.073811   -0.100881   -0.000026  
      8.548125 10.257750  8.548125     0.073811   -0.100881   -0.000026  
      5.128875  5.128875 10.257750     0.073811   -0.100881   -0.000026  
      6.838500  6.838500 10.257750     0.073811   -0.100881   -0.000026  
      8.548125  8.548125 10.257750     0.073811   -0.100881   -0.000026  
     10.257750 10.257750 10.257750     0.073811   -0.100881   -0.000026  
 

 ELASTIC MODULI CONTR FROM IONIC RELAXATION (kBar)
 Direction    XX          YY          ZZ          XY          YZ          ZX
 --------------------------------------------------------------------------------
 XX          -0.0000      0.0000     -0.0000      0.0000     -0.0000      0.0000
 YY           0.0000      0.0000      0.0000     -0.0000      0.0000     -0.0000
 ZZ          -0.0000      0.0000     -0.0000      0.0000     -0.0000     -0.0000
 XY           0.0000     -0.0000      0.0000     -0.0000      0.0000      0.0000
 YZ          -0.0000      0.0000     -0.0000      0.0000     -0.0000      0.0000
 ZX           0.0000      0.0000     -0.0000     -0.0000      0.0000      0.0000
 --------------------------------------------------------------------------------



--------------------------------------------------------------------------------------------------------


  LATTYP: Found a face centered cubic cell.
 ALAT       =    13.6770000000
  
  Lattice vectors:
  
 A1 = (   0.0000000000,   6.8385000000,   6.8385000000)
 A2 = (   6.8385000000,   0.0000000000,   6.8385000000)
 A3 = (   6.8385000000,   6.8385000000,   0.0000000000)


Analysis of symmetry for initial positions (statically):
=====================================================================
 Subroutine PRICEL returns following result:
 
  LATTYP: Found a face centered cubic cell.
 ALAT       =     3.4192500000
  
  Lattice vectors:
  
 A1 = (   0.0000000000,   1.7096250000,   1.7096250000)
 A2 = (   1.7096250000,   0.0000000000,   1.7096250000)
 A3 = (   1.7096250000,   1.7096250000,   0.0000000000)
 
  64 primitive cells build up your supercell.
 

 Routine SETGRP: Setting up the symmetry group for a 
 face centered cubic supercell.


 Subroutine GETGRP returns: Found 48 space group operations
 (whereof 48 operations were pure point group operations)
 out of a pool of 48 trial point group operations.


The static configuration has the point symmetry O_h .


Analysis of symmetry for dynamics (positions and initial velocities):
=====================================================================
 Subroutine PRICEL returns following result:
 
  LATTYP: Found a face centered cubic cell.
 ALAT       =     3.4192500000
  
  Lattice vectors:
  
 A1 = (   0.0000000000,   1.7096250000,   1.7096250000)
 A2 = (   1.7096250000,   0.0000000000,   1.7096250000)
 A3 = (   1.7096250000,   1.7096250000,   0.0000000000)
 
  64 primitive cells build up your supercell.
 

 Routine SETGRP: Setting up the symmetry group for a 
 face centered cubic supercell.


 Subroutine GETGRP returns: Found 48 space group operations
 (whereof 48 operations were pure point group operations)
 out of a pool of 48 trial point group operations.


The dynamic configuration has the point symmetry O_h .


Analysis of structural, dynamic, and magnetic symmetry:
=====================================================================
 Subroutine PRICEL returns following result:
 
  LATTYP: Found a face centered cubic cell.
 ALAT       =     3.4192500000
  
  Lattice vectors:
  
 A1 = (   0.0000000000,   1.7096250000,   1.7096250000)
 A2 = (   1.7096250000,   0.0000000000,   1.7096250000)
 A3 = (   1.7096250000,   1.7096250000,   0.0000000000)
 
  64 primitive cells build up your supercell.
 

 Routine SETGRP: Setting up the symmetry group for a 
 face centered cubic supercell.


 Subroutine GETGRP returns: Found 48 space group operations
 (whereof 48 operations were pure point group operations)
 out of a pool of 48 trial point group operations.


The magnetic configuration has the point symmetry O_h .


 Subroutine INISYM returns: Found 48 space group operations
 (whereof 48 operations are pure point group operations),
 and found    64 'primitive' translations

 
 KPOINTS: Zr 15x15x15                             

Automatic generation of k-mesh.
Space group operators:
 irot       det(A)        alpha          n_x          n_y          n_z        tau_x        tau_y        tau_z
    1     1.000000     0.000000     1.000000     0.000000     0.000000     0.000000     0.000000     0.000000
    2    -1.000000     0.000000     1.000000     0.000000     0.000000     0.000000     0.000000     0.000000
    3     1.000000   120.000000    -0.577350    -0.577350    -0.577350     0.000000     0.000000     0.000000
    4    -1.000000   120.000000    -0.577350    -0.577350    -0.577350     0.000000     0.000000     0.000000
    5     1.000000   120.000000     0.577350     0.577350     0.577350     0.000000     0.000000     0.000000
    6    -1.000000   120.000000     0.577350     0.577350     0.577350     0.000000     0.000000     0.000000
    7     1.000000    90.000000     0.000000     0.000000    -1.000000     0.000000     0.000000     0.000000
    8    -1.000000    90.000000     0.000000     0.000000    -1.000000     0.000000     0.000000     0.000000
    9     1.000000   180.000000     0.000000     0.707107     0.707107     0.000000     0.000000     0.000000
   10    -1.000000   180.000000     0.000000     0.707107     0.707107     0.000000     0.000000     0.000000
   11     1.000000    90.000000     0.000000     1.000000     0.000000     0.000000     0.000000     0.000000
   12    -1.000000    90.000000     0.000000     1.000000     0.000000     0.000000     0.000000     0.000000
   13     1.000000   180.000000     0.000000     0.000000     1.000000     0.000000     0.000000     0.000000
   14    -1.000000   180.000000     0.000000     0.000000     1.000000     0.000000     0.000000     0.000000
   15     1.000000   120.000000    -0.577350     0.577350     0.577350     0.000000     0.000000     0.000000
   16    -1.000000   120.000000    -0.577350     0.577350     0.577350     0.000000     0.000000     0.000000
   17     1.000000   120.000000    -0.577350     0.577350    -0.577350     0.000000     0.000000     0.000000
   18    -1.000000   120.000000    -0.577350     0.577350    -0.577350     0.000000     0.000000     0.000000
   19     1.000000    90.000000     0.000000     0.000000     1.000000     0.000000     0.000000     0.000000
   20    -1.000000    90.000000     0.000000     0.000000     1.000000     0.000000     0.000000     0.000000
   21     1.000000    90.000000    -1.000000     0.000000     0.000000     0.000000     0.000000     0.000000
   22    -1.000000    90.000000    -1.000000     0.000000     0.000000     0.000000     0.000000     0.000000
   23     1.000000   180.000000     0.707107     0.000000     0.707107     0.000000     0.000000     0.000000
   24    -1.000000   180.000000     0.707107     0.000000     0.707107     0.000000     0.000000     0.000000
   25     1.000000   120.000000     0.577350    -0.577350     0.577350     0.000000     0.000000     0.000000
   26    -1.000000   120.000000     0.577350    -0.577350     0.577350     0.000000     0.000000     0.000000
   27     1.000000   120.000000    -0.577350    -0.577350     0.577350     0.000000     0.000000     0.000000
   28    -1.000000   120.000000    -0.577350    -0.577350     0.577350     0.000000     0.000000     0.000000
   29     1.000000   180.000000     1.000000     0.000000     0.000000     0.000000     0.000000     0.000000
   30    -1.000000   180.000000     1.000000     0.000000     0.000000     0.000000     0.000000     0.000000
   31     1.000000    90.000000     0.000000    -1.000000     0.000000     0.000000     0.000000     0.000000
   32    -1.000000    90.000000     0.000000    -1.000000     0.000000     0.000000     0.000000     0.000000
   33     1.000000   180.000000     0.707107     0.707107     0.000000     0.000000     0.000000     0.000000
   34    -1.000000   180.000000     0.707107     0.707107     0.000000     0.000000     0.000000     0.000000
   35     1.000000    90.000000     1.000000     0.000000     0.000000     0.000000     0.000000     0.000000
   36    -1.000000    90.000000     1.000000     0.000000     0.000000     0.000000     0.000000     0.000000
   37     1.000000   120.000000     0.577350    -0.577350    -0.577350     0.000000     0.000000     0.000000
   38    -1.000000   120.000000     0.577350    -0.577350    -0.577350     0.000000     0.000000     0.000000
   39     1.000000   180.000000     0.000000     1.000000     0.000000     0.000000     0.000000     0.000000
   40    -1.000000   180.000000     0.000000     1.000000     0.000000     0.000000     0.000000     0.000000
   41     1.000000   120.000000     0.577350     0.577350    -0.577350     0.000000     0.000000     0.000000
   42    -1.000000   120.000000     0.577350     0.577350    -0.577350     0.000000     0.000000     0.000000
   43     1.000000   180.000000     0.000000    -0.707107     0.707107     0.000000     0.000000     0.000000
   44    -1.000000   180.000000     0.000000    -0.707107     0.707107     0.000000     0.000000     0.000000
   45     1.000000   180.000000     0.707107    -0.707107     0.000000     0.000000     0.000000     0.000000
   46    -1.000000   180.000000     0.707107    -0.707107     0.000000     0.000000     0.000000     0.000000
   47     1.000000   180.000000     0.707107     0.000000    -0.707107     0.000000     0.000000     0.000000
   48    -1.000000   180.000000     0.707107     0.000000    -0.707107     0.000000     0.000000     0.000000
 
 Subroutine IBZKPT returns following result:
 ===========================================
 
 Found      4 irreducible k-points:
 
 Following reciprocal coordinates:
            Coordinates               Weight
  0.000000  0.000000  0.000000      1.000000
  0.333333  0.000000  0.000000      8.000000
  0.333333  0.333333  0.000000      6.000000
 -0.333333  0.333333  0.000000     12.000000
 
 Following cartesian coordinates:
            Coordinates               Weight
  0.000000  0.000000  0.000000      1.000000
 -0.024372  0.024372  0.024372      8.000000
  0.000000  0.000000  0.048744      6.000000
  0.048744 -0.048744  0.000000     12.000000
 
 writing wavefunctions
     LOOP+:  cpu time 9403.0475: real time 9397.1390
    4ORBIT:  cpu time    0.0000: real time    0.0000

 total amount of memory used by VASP on root node  1280191. kBytes
========================================================================

   base      :      30000. kBytes
   nonlr-proj:      55429. kBytes
   fftplans  :      72476. kBytes
   grid      :     173932. kBytes
   one-center:       1990. kBytes
   wavefun   :     946364. kBytes
 
  
  
 General timing and accounting informations for this job:
 ========================================================
  
                  Total CPU time used (sec):    48082.586
                            User time (sec):    48071.644
                          System time (sec):       10.943
                         Elapsed time (sec):    48049.794
  
                   Maximum memory used (kb):     3196576.
                   Average memory used (kb):           0.
  
                          Minor page faults:       292791
                          Major page faults:           11
                 Voluntary context switches:          859
