<?xml version="1.0" encoding="ISO-8859-1"?>
<modeling>
 <generator>
  <i name="program" type="string">vasp </i>
  <i name="version" type="string">5.4.1  </i>
  <i name="subversion" type="string">05Feb16 (build Oct 12 2016 17:31:35) complex                          parallel </i>
  <i name="platform" type="string">IFC91_ompi </i>
  <i name="date" type="string">2020 09 07 </i>
  <i name="time" type="string">12:04:20 </i>
 </generator>
 <incar>
  <i type="string" name="SYSTEM"> phonon of Zr bcc - omiga</i>
  <i type="string" name="PREC">a</i>
  <i type="int" name="ISPIN">     2</i>
  <i type="int" name="IBRION">     6</i>
  <i type="int" name="NFREE">     4</i>
  <i name="EDIFF">      0.00000100</i>
  <i type="int" name="NSW">     1</i>
  <v name="MAGMOM">      1.00000000      1.00000000      1.00000000      1.00000000      1.00000000      1.00000000      1.00000000      1.00000000      1.00000000      1.00000000      1.00000000      1.00000000      1.00000000      1.00000000      1.00000000      1.00000000      1.00000000      1.00000000      1.00000000      1.00000000
      1.00000000      1.00000000      1.00000000      1.00000000      1.00000000      1.00000000      1.00000000      1.00000000      1.00000000      1.00000000      1.00000000      1.00000000      1.00000000      1.00000000      1.00000000      1.00000000      1.00000000      1.00000000      1.00000000      1.00000000
      1.00000000      1.00000000      1.00000000      1.00000000      1.00000000      1.00000000      1.00000000      1.00000000      1.00000000      1.00000000      1.00000000      1.00000000      1.00000000      1.00000000      1.00000000      1.00000000      1.00000000      1.00000000      1.00000000      1.00000000
      1.00000000      1.00000000      1.00000000      1.00000000</v>
  <i type="string" name="LREAL">Auto</i>
  <i type="int" name="ISMEAR">     1</i>
  <i type="int" name="NWRITE">     0</i>
  <v type="int" name="KPOINT_BSE">    -1     0     0     0</v>
 </incar>
 <kpoints>
  <generation param="Gamma">
   <v type="int" name="divisions">       3        3        3 </v>
   <v name="usershift">      0.00000000       0.00000000       0.00000000 </v>
   <v name="genvec1">      0.33333333       0.00000000       0.00000000 </v>
   <v name="genvec2">      0.00000000       0.33333333       0.00000000 </v>
   <v name="genvec3">      0.00000000       0.00000000       0.33333333 </v>
   <v name="shift">      0.00000000       0.00000000       0.00000000 </v>
  </generation>
  <varray name="kpointlist" >
   <v>       0.00000000       0.00000000       0.00000000 </v>
   <v>       0.33333333       0.00000000       0.00000000 </v>
   <v>       0.33333333       0.33333333       0.00000000 </v>
   <v>      -0.33333333       0.33333333       0.00000000 </v>
  </varray>
  <varray name="weights" >
   <v>       0.03703704 </v>
   <v>       0.29629630 </v>
   <v>       0.22222222 </v>
   <v>       0.44444444 </v>
  </varray>
 </kpoints>
 <parameters>
  <separator name="general" >
   <i type="string" name="SYSTEM">phonon of Zr bcc - omiga</i>
   <i type="logical" name="LCOMPAT"> F  </i>
  </separator>
  <separator name="electronic" >
   <i type="string" name="PREC">a</i>
   <i name="ENMAX">    367.94500000</i>
   <i name="ENAUG">    703.44300000</i>
   <i name="EDIFF">      0.00000100</i>
   <i type="int" name="IALGO">    38</i>
   <i type="int" name="IWAVPR">    11</i>
   <i type="int" name="NBANDS">   646</i>
   <i name="NELECT">   1024.00000000</i>
   <i type="int" name="TURBO">     0</i>
   <i type="int" name="IRESTART">     0</i>
   <i type="int" name="NREBOOT">     0</i>
   <i type="int" name="NMIN">     0</i>
   <i name="EREF">      0.00000000</i>
   <separator name="electronic smearing" >
    <i type="int" name="ISMEAR">     1</i>
    <i name="SIGMA">      0.20000000</i>
    <i name="KSPACING">      0.50000000</i>
    <i type="logical" name="KGAMMA"> T  </i>
   </separator>
   <separator name="electronic projectors" >
    <i type="logical" name="LREAL"> T  </i>
    <v name="ROPT">     -0.00025000</v>
    <i type="int" name="LMAXPAW">  -100</i>
    <i type="int" name="LMAXMIX">     2</i>
    <i type="logical" name="NLSPLINE"> F  </i>
   </separator>
   <separator name="electronic startup" >
    <i type="int" name="ISTART">     0</i>
    <i type="int" name="ICHARG">     2</i>
    <i type="int" name="INIWAV">     1</i>
   </separator>
   <separator name="electronic spin" >
    <i type="int" name="ISPIN">     2</i>
    <i type="logical" name="LNONCOLLINEAR"> F  </i>
    <v name="MAGMOM">      1.00000000      1.00000000      1.00000000      1.00000000      1.00000000      1.00000000      1.00000000      1.00000000      1.00000000      1.00000000      1.00000000      1.00000000      1.00000000      1.00000000      1.00000000      1.00000000      1.00000000      1.00000000      1.00000000      1.00000000
      1.00000000      1.00000000      1.00000000      1.00000000      1.00000000      1.00000000      1.00000000      1.00000000      1.00000000      1.00000000      1.00000000      1.00000000      1.00000000      1.00000000      1.00000000      1.00000000      1.00000000      1.00000000      1.00000000      1.00000000
      1.00000000      1.00000000      1.00000000      1.00000000      1.00000000      1.00000000      1.00000000      1.00000000      1.00000000      1.00000000      1.00000000      1.00000000      1.00000000      1.00000000      1.00000000      1.00000000      1.00000000      1.00000000      1.00000000      1.00000000
      1.00000000      1.00000000      1.00000000      1.00000000</v>
    <i name="NUPDOWN">     -1.00000000</i>
    <i type="logical" name="LSORBIT"> F  </i>
    <v name="SAXIS">      0.00000000      0.00000000      1.00000000</v>
    <i type="logical" name="LSPIRAL"> F  </i>
    <v name="QSPIRAL">      0.00000000      0.00000000      0.00000000</v>
    <i type="logical" name="LZEROZ"> F  </i>
   </separator>
   <separator name="electronic exchange-correlation" >
    <i type="logical" name="LASPH"> F  </i>
    <i type="logical" name="LMETAGGA"> F  </i>
   </separator>
   <separator name="electronic convergence" >
    <i type="int" name="NELM">    60</i>
    <i type="int" name="NELMDL">     0</i>
    <i type="int" name="NELMIN">     2</i>
    <i name="ENINI">    367.94500000</i>
    <separator name="electronic convergence detail" >
     <i type="logical" name="LDIAG"> T  </i>
     <i type="logical" name="LSUBROT"> F  </i>
     <i name="WEIMIN">      0.00100000</i>
     <i name="EBREAK">      0.00000000</i>
     <i name="DEPER">      0.30000000</i>
     <i type="int" name="NRMM">     4</i>
     <i name="TIME">      0.40000000</i>
    </separator>
   </separator>
   <separator name="electronic mixer" >
    <i name="AMIX">      0.40000000</i>
    <i name="BMIX">      1.00000000</i>
    <i name="AMIN">      0.10000000</i>
    <i name="AMIX_MAG">      1.60000000</i>
    <i name="BMIX_MAG">      1.00000000</i>
    <separator name="electronic mixer details" >
     <i type="int" name="IMIX">     4</i>
     <i type="logical" name="MIXFIRST"> F  </i>
     <i type="int" name="MAXMIX">   -45</i>
     <i name="WC">    100.00000000</i>
     <i type="int" name="INIMIX">     1</i>
     <i type="int" name="MIXPRE">     1</i>
     <i type="int" name="MREMOVE">     5</i>
    </separator>
   </separator>
   <separator name="electronic dipolcorrection" >
    <i type="logical" name="LDIPOL"> F  </i>
    <i type="logical" name="LMONO"> F  </i>
    <i type="int" name="IDIPOL">     0</i>
    <i name="EPSILON">      1.00000000</i>
    <v name="DIPOL">   -100.00000000   -100.00000000   -100.00000000</v>
    <i name="EFIELD">      0.00000000</i>
   </separator>
  </separator>
  <separator name="grids" >
   <i type="int" name="NGX">    64</i>
   <i type="int" name="NGY">    64</i>
   <i type="int" name="NGZ">    64</i>
   <i type="int" name="NGXF">   128</i>
   <i type="int" name="NGYF">   128</i>
   <i type="int" name="NGZF">   128</i>
   <i type="logical" name="ADDGRID"> F  </i>
  </separator>
  <separator name="ionic" >
   <i type="int" name="NSW">   805</i>
   <i type="int" name="IBRION">     6</i>
   <i type="int" name="ISIF">     2</i>
   <i name="PSTRESS">      0.00000000</i>
   <i name="EDIFFG">      0.00001000</i>
   <i type="int" name="NFREE">     4</i>
   <i name="POTIM">      0.50000000</i>
   <i name="SMASS">     -3.00000000</i>
   <i name="SCALEE">      1.00000000</i>
  </separator>
  <separator name="ionic md" >
   <i name="TEBEG">      0.00010000</i>
   <i name="TEEND">      0.00010000</i>
   <i type="int" name="NBLOCK">     1</i>
   <i type="int" name="KBLOCK">     1</i>
   <i type="int" name="NPACO">   256</i>
   <i name="APACO">     16.00000000</i>
  </separator>
  <separator name="symmetry" >
   <i type="int" name="ISYM">     2</i>
   <i name="SYMPREC">      0.00001000</i>
  </separator>
  <separator name="dos" >
   <i type="logical" name="LORBIT"> F  </i>
   <v name="RWIGS">     -1.00000000</v>
   <i type="int" name="NEDOS">   301</i>
   <i name="EMIN">     10.00000000</i>
   <i name="EMAX">    -10.00000000</i>
   <i name="EFERMI">      0.00000000</i>
  </separator>
  <separator name="writing" >
   <i type="int" name="NWRITE">     0</i>
   <i type="logical" name="LWAVE"> T  </i>
   <i type="logical" name="LCHARG"> T  </i>
   <i type="logical" name="LPARD"> F  </i>
   <i type="logical" name="LVTOT"> F  </i>
   <i type="logical" name="LVHAR"> F  </i>
   <i type="logical" name="LELF"> F  </i>
   <i type="logical" name="LOPTICS"> F  </i>
   <v name="STM">      0.00000000      0.00000000      0.00000000      0.00000000      0.00000000      0.00000000      0.00000000</v>
  </separator>
  <separator name="performance" >
   <i type="int" name="NPAR">     1</i>
   <i type="int" name="NSIM">     4</i>
   <i type="int" name="NBLK">    -1</i>
   <i type="logical" name="LPLANE"> T  </i>
   <i type="logical" name="LSCALAPACK"> T  </i>
   <i type="logical" name="LSCAAWARE"> F  </i>
   <i type="logical" name="LSCALU"> F  </i>
   <i type="logical" name="LASYNC"> F  </i>
   <i type="logical" name="LORBITALREAL"> F  </i>
  </separator>
  <separator name="miscellaneous" >
   <i type="int" name="IDIOT">     3</i>
   <i type="logical" name="LMUSIC"> F  </i>
   <v name="POMASS">     58.69000000</v>
   <v name="DARWINR">      0.00000000</v>
   <v name="DARWINV">      1.00000000</v>
   <i type="logical" name="LCORR"> T  </i>
  </separator>
  <i type="logical" name="GGA_COMPAT"> T  </i>
  <i type="logical" name="LBERRY"> F  </i>
  <i type="int" name="ICORELEVEL">     0</i>
  <i type="logical" name="LDAU"> F  </i>
  <i type="int" name="I_CONSTRAINED_M">     0</i>
  <separator name="electronic exchange-correlation" >
   <i type="string" name="GGA">--</i>
   <i type="int" name="VOSKOWN">     0</i>
   <i type="logical" name="LHFCALC"> F  </i>
   <i type="string" name="PRECFOCK"></i>
   <i type="logical" name="LSYMGRAD"> F  </i>
   <i type="logical" name="LHFONE"> F  </i>
   <i type="logical" name="LRHFCALC"> F  </i>
   <i type="logical" name="LTHOMAS"> F  </i>
   <i type="logical" name="LMODELHF"> F  </i>
   <i name="ENCUT4O">     -1.00000000</i>
   <i type="int" name="EXXOEP">     0</i>
   <i type="int" name="FOURORBIT">     0</i>
   <i name="AEXX">      0.00000000</i>
   <i name="HFALPHA">      0.00000000</i>
   <i name="MCALPHA">      0.00000000</i>
   <i name="ALDAX">      1.00000000</i>
   <i name="AGGAX">      1.00000000</i>
   <i name="ALDAC">      1.00000000</i>
   <i name="AGGAC">      1.00000000</i>
   <i type="int" name="NKREDX">     1</i>
   <i type="int" name="NKREDY">     1</i>
   <i type="int" name="NKREDZ">     1</i>
   <i type="logical" name="SHIFTRED"> F  </i>
   <i type="logical" name="ODDONLY"> F  </i>
   <i type="logical" name="EVENONLY"> F  </i>
   <i type="int" name="LMAXFOCK">     0</i>
   <i type="int" name="NMAXFOCKAE">     0</i>
   <i type="logical" name="LFOCKAEDFT"> F  </i>
   <i name="HFSCREEN">      0.00000000</i>
   <i name="HFSCREENC">      0.00000000</i>
   <i type="int" name="NBANDSGWLOW">     0</i>
  </separator>
  <separator name="vdW DFT" >
   <i type="logical" name="LUSE_VDW"> F  </i>
   <i name="Zab_VDW">     -0.84910000</i>
   <i name="PARAM1">      0.12340000</i>
   <i name="PARAM2">      1.00000000</i>
   <i name="PARAM3">      0.00000000</i>
  </separator>
  <separator name="model GW" >
   <i type="int" name="MODEL_GW">     0</i>
   <i name="MODEL_EPS0">      5.99630653</i>
   <i name="MODEL_ALPHA">      1.00000000</i>
  </separator>
  <separator name="linear response parameters" >
   <i type="logical" name="LEPSILON"> F  </i>
   <i type="logical" name="LRPA"> F  </i>
   <i type="logical" name="LNABLA"> F  </i>
   <i type="logical" name="LVEL"> F  </i>
   <i type="int" name="KINTER">     0</i>
   <i name="CSHIFT">      0.10000000</i>
   <i name="OMEGAMAX">     -1.00000000</i>
   <i name="DEG_THRESHOLD">      0.00200000</i>
  </separator>
  <separator name="orbital magnetization" >
   <i type="logical" name="NUCIND"> F  </i>
   <v name="MAGPOS">      0.00000000      0.00000000      0.00000000</v>
   <i type="logical" name="LNICSALL"> T  </i>
   <i type="logical" name="ORBITALMAG"> F  </i>
   <i type="logical" name="LMAGBLOCH"> F  </i>
   <i type="logical" name="LCHIMAG"> F  </i>
   <i type="logical" name="LGAUGE"> T  </i>
   <i type="int" name="MAGATOM">     0</i>
   <v name="MAGDIPOL">      0.00000000      0.00000000      0.00000000</v>
   <v name="AVECCONST">      0.00000000      0.00000000      0.00000000</v>
  </separator>
  <separator name="response functions" >
   <i type="logical" name="LADDER"> F  </i>
   <i type="logical" name="LFXC"> F  </i>
   <i type="logical" name="LHARTREE"> T  </i>
   <i type="int" name="IBSE">     0</i>
   <v type="int" name="KPOINT">    -1     0     0     0</v>
   <i type="logical" name="LTCTE"> F  </i>
   <i type="logical" name="LTETE"> F  </i>
   <i type="logical" name="LTRIPLET"> F  </i>
   <i type="logical" name="LFXCEPS"> F  </i>
   <i type="logical" name="LFXHEG"> F  </i>
   <i type="int" name="NATURALO">     0</i>
   <i type="logical" name="L2ORDER"> F  </i>
   <i type="logical" name="LUSEW"> F  </i>
   <i name="ENCUTGW">     -2.00000000</i>
   <i name="ENCUTGWSOFT">     -2.00000000</i>
   <i name="ENCUTLF">     -1.00000000</i>
   <i type="int" name="LMAXMP2">    -1</i>
   <i name="SCISSOR">      0.00000000</i>
   <i type="int" name="NOMEGA">     0</i>
   <i type="int" name="NOMEGAR">     0</i>
   <i type="int" name="NBANDSGW">    -1</i>
   <i type="int" name="NBANDSO">    -1</i>
   <i type="int" name="NBANDSV">    -1</i>
   <i type="int" name="NELM">     1</i>
   <i type="int" name="NELMHF">     1</i>
   <i type="int" name="DIM">     3</i>
   <i type="int" name="ANTIRES">     0</i>
   <i name="OMEGAMAX">    -30.00000000</i>
   <i name="OMEGAMIN">    -30.00000000</i>
   <i name="OMEGATL">   -200.00000000</i>
   <i type="int" name="OMEGAGRID">     0</i>
   <i name="CSHIFT">     -0.10000000</i>
   <i type="logical" name="SELFENERGY"> F  </i>
   <i type="logical" name="LSPECTRAL"> F  </i>
   <i type="logical" name="LSPECTRALGW"> F  </i>
   <i type="logical" name="LSINGLES"> F  </i>
   <i type="logical" name="LFERMIGW"> F  </i>
   <i type="logical" name="ODDONLYGW"> F  </i>
   <i type="logical" name="EVENONLYGW"> F  </i>
   <i type="int" name="NKREDLFX">     1</i>
   <i type="int" name="NKREDLFY">     1</i>
   <i type="int" name="NKREDLFZ">     1</i>
   <i type="int" name="MAXMEM">  1800</i>
   <i type="int" name="TELESCOPE">     0</i>
   <i type="int" name="TAUPAR">     1</i>
   <i type="int" name="OMEGAPAR">    -1</i>
   <i name="LAMBDA">      1.00000000</i>
  </separator>
  <separator name="External order field" >
   <i name="OFIELD_KAPPA">      0.00000000</i>
   <v name="OFIELD_K">      0.00000000      0.00000000      0.00000000</v>
   <i name="OFIELD_Q6_NEAR">      0.00000000</i>
   <i name="OFIELD_Q6_FAR">      0.00000000</i>
   <i name="OFIELD_A">      0.00000000</i>
  </separator>
 </parameters>
 <atominfo>
  <atoms>      64 </atoms>
  <types>       1 </types>
  <array name="atoms" >
   <dimension dim="1">ion</dimension>
   <field type="string">element</field>
   <field type="int">atomtype</field>
   <set>
    <rc><c>Ni</c><c>   1</c></rc>
    <rc><c>Ni</c><c>   1</c></rc>
    <rc><c>Ni</c><c>   1</c></rc>
    <rc><c>Ni</c><c>   1</c></rc>
    <rc><c>Ni</c><c>   1</c></rc>
    <rc><c>Ni</c><c>   1</c></rc>
    <rc><c>Ni</c><c>   1</c></rc>
    <rc><c>Ni</c><c>   1</c></rc>
    <rc><c>Ni</c><c>   1</c></rc>
    <rc><c>Ni</c><c>   1</c></rc>
    <rc><c>Ni</c><c>   1</c></rc>
    <rc><c>Ni</c><c>   1</c></rc>
    <rc><c>Ni</c><c>   1</c></rc>
    <rc><c>Ni</c><c>   1</c></rc>
    <rc><c>Ni</c><c>   1</c></rc>
    <rc><c>Ni</c><c>   1</c></rc>
    <rc><c>Ni</c><c>   1</c></rc>
    <rc><c>Ni</c><c>   1</c></rc>
    <rc><c>Ni</c><c>   1</c></rc>
    <rc><c>Ni</c><c>   1</c></rc>
    <rc><c>Ni</c><c>   1</c></rc>
    <rc><c>Ni</c><c>   1</c></rc>
    <rc><c>Ni</c><c>   1</c></rc>
    <rc><c>Ni</c><c>   1</c></rc>
    <rc><c>Ni</c><c>   1</c></rc>
    <rc><c>Ni</c><c>   1</c></rc>
    <rc><c>Ni</c><c>   1</c></rc>
    <rc><c>Ni</c><c>   1</c></rc>
    <rc><c>Ni</c><c>   1</c></rc>
    <rc><c>Ni</c><c>   1</c></rc>
    <rc><c>Ni</c><c>   1</c></rc>
    <rc><c>Ni</c><c>   1</c></rc>
    <rc><c>Ni</c><c>   1</c></rc>
    <rc><c>Ni</c><c>   1</c></rc>
    <rc><c>Ni</c><c>   1</c></rc>
    <rc><c>Ni</c><c>   1</c></rc>
    <rc><c>Ni</c><c>   1</c></rc>
    <rc><c>Ni</c><c>   1</c></rc>
    <rc><c>Ni</c><c>   1</c></rc>
    <rc><c>Ni</c><c>   1</c></rc>
    <rc><c>Ni</c><c>   1</c></rc>
    <rc><c>Ni</c><c>   1</c></rc>
    <rc><c>Ni</c><c>   1</c></rc>
    <rc><c>Ni</c><c>   1</c></rc>
    <rc><c>Ni</c><c>   1</c></rc>
    <rc><c>Ni</c><c>   1</c></rc>
    <rc><c>Ni</c><c>   1</c></rc>
    <rc><c>Ni</c><c>   1</c></rc>
    <rc><c>Ni</c><c>   1</c></rc>
    <rc><c>Ni</c><c>   1</c></rc>
    <rc><c>Ni</c><c>   1</c></rc>
    <rc><c>Ni</c><c>   1</c></rc>
    <rc><c>Ni</c><c>   1</c></rc>
    <rc><c>Ni</c><c>   1</c></rc>
    <rc><c>Ni</c><c>   1</c></rc>
    <rc><c>Ni</c><c>   1</c></rc>
    <rc><c>Ni</c><c>   1</c></rc>
    <rc><c>Ni</c><c>   1</c></rc>
    <rc><c>Ni</c><c>   1</c></rc>
    <rc><c>Ni</c><c>   1</c></rc>
    <rc><c>Ni</c><c>   1</c></rc>
    <rc><c>Ni</c><c>   1</c></rc>
    <rc><c>Ni</c><c>   1</c></rc>
    <rc><c>Ni</c><c>   1</c></rc>
   </set>
  </array>
  <array name="atomtypes" >
   <dimension dim="1">type</dimension>
   <field type="int">atomspertype</field>
   <field type="string">element</field>
   <field>mass</field>
   <field>valence</field>
   <field type="string">pseudopotential</field>
   <set>
    <rc><c>  64</c><c>Ni</c><c>     58.69000000</c><c>     16.00000000</c><c> PAW_PBE Ni_pv 06Sep2000                </c></rc>
   </set>
  </array>
 </atominfo>
 <structure name="initialpos" >
  <crystal>
   <varray name="basis" >
    <v>       0.00000000       6.83850000       6.83850000 </v>
    <v>       6.83850000       0.00000000       6.83850000 </v>
    <v>       6.83850000       6.83850000       0.00000000 </v>
   </varray>
   <i name="volume">    639.60602993 </i>
   <varray name="rec_basis" >
    <v>      -0.07311545       0.07311545       0.07311545 </v>
    <v>       0.07311545      -0.07311545       0.07311545 </v>
    <v>       0.07311545       0.07311545      -0.07311545 </v>
   </varray>
  </crystal>
  <varray name="positions" >
   <v>       0.00000000       0.00000000       0.00000000 </v>
   <v>       0.00000000       0.00000000       0.25000000 </v>
   <v>       0.00000000       0.00000000       0.50000000 </v>
   <v>       0.00000000       0.00000000       0.75000000 </v>
   <v>       0.00000000       0.25000000       0.00000000 </v>
   <v>       0.00000000       0.25000000       0.25000000 </v>
   <v>       0.00000000       0.25000000       0.50000000 </v>
   <v>       0.00000000       0.25000000       0.75000000 </v>
   <v>       0.00000000       0.50000000       0.00000000 </v>
   <v>       0.00000000       0.50000000       0.25000000 </v>
   <v>       0.00000000       0.50000000       0.50000000 </v>
   <v>       0.00000000       0.50000000       0.75000000 </v>
   <v>       0.00000000       0.75000000       0.00000000 </v>
   <v>       0.00000000       0.75000000       0.25000000 </v>
   <v>       0.00000000       0.75000000       0.50000000 </v>
   <v>       0.00000000       0.75000000       0.75000000 </v>
   <v>       0.25000000       0.00000000       0.00000000 </v>
   <v>       0.25000000       0.00000000       0.25000000 </v>
   <v>       0.25000000       0.00000000       0.50000000 </v>
   <v>       0.25000000       0.00000000       0.75000000 </v>
   <v>       0.25000000       0.25000000       0.00000000 </v>
   <v>       0.25000000       0.25000000       0.25000000 </v>
   <v>       0.25000000       0.25000000       0.50000000 </v>
   <v>       0.25000000       0.25000000       0.75000000 </v>
   <v>       0.25000000       0.50000000       0.00000000 </v>
   <v>       0.25000000       0.50000000       0.25000000 </v>
   <v>       0.25000000       0.50000000       0.50000000 </v>
   <v>       0.25000000       0.50000000       0.75000000 </v>
   <v>       0.25000000       0.75000000       0.00000000 </v>
   <v>       0.25000000       0.75000000       0.25000000 </v>
   <v>       0.25000000       0.75000000       0.50000000 </v>
   <v>       0.25000000       0.75000000       0.75000000 </v>
   <v>       0.50000000       0.00000000       0.00000000 </v>
   <v>       0.50000000       0.00000000       0.25000000 </v>
   <v>       0.50000000       0.00000000       0.50000000 </v>
   <v>       0.50000000       0.00000000       0.75000000 </v>
   <v>       0.50000000       0.25000000       0.00000000 </v>
   <v>       0.50000000       0.25000000       0.25000000 </v>
   <v>       0.50000000       0.25000000       0.50000000 </v>
   <v>       0.50000000       0.25000000       0.75000000 </v>
   <v>       0.50000000       0.50000000       0.00000000 </v>
   <v>       0.50000000       0.50000000       0.25000000 </v>
   <v>       0.50000000       0.50000000       0.50000000 </v>
   <v>       0.50000000       0.50000000       0.75000000 </v>
   <v>       0.50000000       0.75000000       0.00000000 </v>
   <v>       0.50000000       0.75000000       0.25000000 </v>
   <v>       0.50000000       0.75000000       0.50000000 </v>
   <v>       0.50000000       0.75000000       0.75000000 </v>
   <v>       0.75000000       0.00000000       0.00000000 </v>
   <v>       0.75000000       0.00000000       0.25000000 </v>
   <v>       0.75000000       0.00000000       0.50000000 </v>
   <v>       0.75000000       0.00000000       0.75000000 </v>
   <v>       0.75000000       0.25000000       0.00000000 </v>
   <v>       0.75000000       0.25000000       0.25000000 </v>
   <v>       0.75000000       0.25000000       0.50000000 </v>
   <v>       0.75000000       0.25000000       0.75000000 </v>
   <v>       0.75000000       0.50000000       0.00000000 </v>
   <v>       0.75000000       0.50000000       0.25000000 </v>
   <v>       0.75000000       0.50000000       0.50000000 </v>
   <v>       0.75000000       0.50000000       0.75000000 </v>
   <v>       0.75000000       0.75000000       0.00000000 </v>
   <v>       0.75000000       0.75000000       0.25000000 </v>
   <v>       0.75000000       0.75000000       0.50000000 </v>
   <v>       0.75000000       0.75000000       0.75000000 </v>
  </varray>
 </structure>
 <calculation>
  <scstep>
   <time name="dav">  435.16  434.81</time>
   <time name="total">  437.72  437.36</time>
   <energy>
    <i name="alphaZ">  10788.19976491 </i>
    <i name="ewald">-158176.33604460 </i>
    <i name="hartreedc"> -59049.51858578 </i>
    <i name="XCdc">   5740.20187869 </i>
    <i name="pawpsdc"> 172361.15642774 </i>
    <i name="pawaedc">-181272.45834873 </i>
    <i name="eentropy">      0.02060822 </i>
    <i name="bandstr">   -171.55066415 </i>
    <i name="atom"> 224013.29143063 </i>
    <i name="e_fr_energy">  14233.00646693 </i>
    <i name="e_wo_entrp">  14232.98585871 </i>
    <i name="e_0_energy">  14232.99959752 </i>
   </energy>
  </scstep>
  <scstep>
   <time name="dav">  389.54  389.22</time>
   <time name="total">  389.55  389.23</time>
   <energy>
    <i name="e_fr_energy">    903.15720508 </i>
    <i name="e_wo_entrp">    903.15563948 </i>
    <i name="e_0_energy">    903.15668321 </i>
   </energy>
  </scstep>
  <scstep>
   <time name="dav">  397.12  396.80</time>
   <time name="total">  397.14  396.81</time>
   <energy>
    <i name="e_fr_energy">   -361.48570766 </i>
    <i name="e_wo_entrp">   -361.54361670 </i>
    <i name="e_0_energy">   -361.50501067 </i>
   </energy>
  </scstep>
  <scstep>
   <time name="dav">  408.41  408.07</time>
   <time name="total">  408.43  408.09</time>
   <energy>
    <i name="e_fr_energy">   -426.22099712 </i>
    <i name="e_wo_entrp">   -426.31915794 </i>
    <i name="e_0_energy">   -426.25371739 </i>
   </energy>
  </scstep>
  <scstep>
   <time name="dav">  405.92  405.58</time>
   <time name="total">  423.51  423.15</time>
   <energy>
    <i name="e_fr_energy">   -427.17035709 </i>
    <i name="e_wo_entrp">   -427.26887146 </i>
    <i name="e_0_energy">   -427.20319522 </i>
   </energy>
  </scstep>
  <scstep>
   <time name="dav">  402.04  401.71</time>
   <time name="total">  420.54  420.20</time>
   <energy>
    <i name="e_fr_energy">   -384.87721658 </i>
    <i name="e_wo_entrp">   -384.58037230 </i>
    <i name="e_0_energy">   -384.77826849 </i>
   </energy>
  </scstep>
  <scstep>
   <time name="dav">  400.74  400.40</time>
   <time name="total">  419.45  419.10</time>
   <energy>
    <i name="e_fr_energy">   -364.60832507 </i>
    <i name="e_wo_entrp">   -364.41738592 </i>
    <i name="e_0_energy">   -364.54467868 </i>
   </energy>
  </scstep>
  <scstep>
   <time name="dav">  405.39  405.05</time>
   <time name="total">  424.14  423.79</time>
   <energy>
    <i name="e_fr_energy">   -364.50933174 </i>
    <i name="e_wo_entrp">   -364.25626617 </i>
    <i name="e_0_energy">   -364.42497655 </i>
   </energy>
  </scstep>
  <scstep>
   <time name="dav">  419.23  418.89</time>
   <time name="total">  438.00  437.64</time>
   <energy>
    <i name="e_fr_energy">   -364.44249182 </i>
    <i name="e_wo_entrp">   -364.16681508 </i>
    <i name="e_0_energy">   -364.35059957 </i>
   </energy>
  </scstep>
  <scstep>
   <time name="dav">  406.64  406.30</time>
   <time name="total">  425.39  425.04</time>
   <energy>
    <i name="e_fr_energy">   -364.44576958 </i>
    <i name="e_wo_entrp">   -364.16954211 </i>
    <i name="e_0_energy">   -364.35369376 </i>
   </energy>
  </scstep>
  <scstep>
   <time name="dav">  404.72  404.38</time>
   <time name="total">  426.18  425.82</time>
   <energy>
    <i name="e_fr_energy">   -364.44652946 </i>
    <i name="e_wo_entrp">   -364.17000169 </i>
    <i name="e_0_energy">   -364.35435354 </i>
   </energy>
  </scstep>
  <scstep>
   <time name="dav">  397.26  396.93</time>
   <time name="total">  418.69  418.34</time>
   <energy>
    <i name="e_fr_energy">   -364.44663155 </i>
    <i name="e_wo_entrp">   -364.16942950 </i>
    <i name="e_0_energy">   -364.35423086 </i>
   </energy>
  </scstep>
  <scstep>
   <time name="dav">  368.60  368.29</time>
   <time name="total">  390.06  389.74</time>
   <energy>
    <i name="e_fr_energy">   -364.44661833 </i>
    <i name="e_wo_entrp">   -364.16929852 </i>
    <i name="e_0_energy">   -364.35417840 </i>
   </energy>
  </scstep>
  <scstep>
   <time name="dav">  360.52  360.22</time>
   <time name="total">  381.99  381.67</time>
   <energy>
    <i name="e_fr_energy">   -364.44658530 </i>
    <i name="e_wo_entrp">   -364.16929574 </i>
    <i name="e_0_energy">   -364.35415545 </i>
   </energy>
  </scstep>
  <scstep>
   <time name="dav">  246.82  246.61</time>
   <time name="total">  268.30  268.07</time>
   <energy>
    <i name="e_fr_energy">   -364.44658216 </i>
    <i name="e_wo_entrp">   -364.16930104 </i>
    <i name="e_0_energy">   -364.35415512 </i>
   </energy>
  </scstep>
  <scstep>
   <time name="dav">  247.99  247.78</time>
   <time name="total">  250.54  250.33</time>
   <energy>
    <i name="alphaZ">  10788.19976491 </i>
    <i name="ewald">-158176.33604460 </i>
    <i name="hartreedc"> -56683.63536868 </i>
    <i name="XCdc">   5647.86786048 </i>
    <i name="pawpsdc"> 173494.63968671 </i>
    <i name="pawaedc">-182562.95125023 </i>
    <i name="eentropy">     -0.27727573 </i>
    <i name="bandstr"> -16885.24538610 </i>
    <i name="atom"> 224013.29143063 </i>
    <i name="e_fr_energy">   -364.44658260 </i>
    <i name="e_wo_entrp">   -364.16930688 </i>
    <i name="e_0_energy">   -364.35415736 </i>
   </energy>
  </scstep>
  <structure>
   <crystal>
    <varray name="basis" >
     <v>       0.00000000       6.83850000       6.83850000 </v>
     <v>       6.83850000       0.00000000       6.83850000 </v>
     <v>       6.83850000       6.83850000       0.00000000 </v>
    </varray>
    <i name="volume">    639.60602993 </i>
    <varray name="rec_basis" >
     <v>      -0.07311545       0.07311545       0.07311545 </v>
     <v>       0.07311545      -0.07311545       0.07311545 </v>
     <v>       0.07311545       0.07311545      -0.07311545 </v>
    </varray>
   </crystal>
   <varray name="positions" >
    <v>       0.00000000       0.00000000       0.00000000 </v>
    <v>       0.00000000       0.00000000       0.25000000 </v>
    <v>       0.00000000       0.00000000       0.50000000 </v>
    <v>       0.00000000       0.00000000       0.75000000 </v>
    <v>       0.00000000       0.25000000       0.00000000 </v>
    <v>       0.00000000       0.25000000       0.25000000 </v>
    <v>       0.00000000       0.25000000       0.50000000 </v>
    <v>       0.00000000       0.25000000       0.75000000 </v>
    <v>       0.00000000       0.50000000       0.00000000 </v>
    <v>       0.00000000       0.50000000       0.25000000 </v>
    <v>       0.00000000       0.50000000       0.50000000 </v>
    <v>       0.00000000       0.50000000       0.75000000 </v>
    <v>       0.00000000       0.75000000       0.00000000 </v>
    <v>       0.00000000       0.75000000       0.25000000 </v>
    <v>       0.00000000       0.75000000       0.50000000 </v>
    <v>       0.00000000       0.75000000       0.75000000 </v>
    <v>       0.25000000       0.00000000       0.00000000 </v>
    <v>       0.25000000       0.00000000       0.25000000 </v>
    <v>       0.25000000       0.00000000       0.50000000 </v>
    <v>       0.25000000       0.00000000       0.75000000 </v>
    <v>       0.25000000       0.25000000       0.00000000 </v>
    <v>       0.25000000       0.25000000       0.25000000 </v>
    <v>       0.25000000       0.25000000       0.50000000 </v>
    <v>       0.25000000       0.25000000       0.75000000 </v>
    <v>       0.25000000       0.50000000       0.00000000 </v>
    <v>       0.25000000       0.50000000       0.25000000 </v>
    <v>       0.25000000       0.50000000       0.50000000 </v>
    <v>       0.25000000       0.50000000       0.75000000 </v>
    <v>       0.25000000       0.75000000       0.00000000 </v>
    <v>       0.25000000       0.75000000       0.25000000 </v>
    <v>       0.25000000       0.75000000       0.50000000 </v>
    <v>       0.25000000       0.75000000       0.75000000 </v>
    <v>       0.50000000       0.00000000       0.00000000 </v>
    <v>       0.50000000       0.00000000       0.25000000 </v>
    <v>       0.50000000       0.00000000       0.50000000 </v>
    <v>       0.50000000       0.00000000       0.75000000 </v>
    <v>       0.50000000       0.25000000       0.00000000 </v>
    <v>       0.50000000       0.25000000       0.25000000 </v>
    <v>       0.50000000       0.25000000       0.50000000 </v>
    <v>       0.50000000       0.25000000       0.75000000 </v>
    <v>       0.50000000       0.50000000       0.00000000 </v>
    <v>       0.50000000       0.50000000       0.25000000 </v>
    <v>       0.50000000       0.50000000       0.50000000 </v>
    <v>       0.50000000       0.50000000       0.75000000 </v>
    <v>       0.50000000       0.75000000       0.00000000 </v>
    <v>       0.50000000       0.75000000       0.25000000 </v>
    <v>       0.50000000       0.75000000       0.50000000 </v>
    <v>       0.50000000       0.75000000       0.75000000 </v>
    <v>       0.75000000       0.00000000       0.00000000 </v>
    <v>       0.75000000       0.00000000       0.25000000 </v>
    <v>       0.75000000       0.00000000       0.50000000 </v>
    <v>       0.75000000       0.00000000       0.75000000 </v>
    <v>       0.75000000       0.25000000       0.00000000 </v>
    <v>       0.75000000       0.25000000       0.25000000 </v>
    <v>       0.75000000       0.25000000       0.50000000 </v>
    <v>       0.75000000       0.25000000       0.75000000 </v>
    <v>       0.75000000       0.50000000       0.00000000 </v>
    <v>       0.75000000       0.50000000       0.25000000 </v>
    <v>       0.75000000       0.50000000       0.50000000 </v>
    <v>       0.75000000       0.50000000       0.75000000 </v>
    <v>       0.75000000       0.75000000       0.00000000 </v>
    <v>       0.75000000       0.75000000       0.25000000 </v>
    <v>       0.75000000       0.75000000       0.50000000 </v>
    <v>       0.75000000       0.75000000       0.75000000 </v>
   </varray>
  </structure>
  <varray name="forces" >
   <v>       0.00000000       0.00000000       0.00000000 </v>
   <v>      -0.00000000       0.00000000       0.00000000 </v>
   <v>       0.00000000       0.00000000       0.00000000 </v>
   <v>       0.00000000      -0.00000000       0.00000000 </v>
   <v>       0.00000000       0.00000000      -0.00000000 </v>
   <v>       0.00000000       0.00000000       0.00000000 </v>
   <v>       0.00000000      -0.00000000       0.00000000 </v>
   <v>       0.00000000      -0.00000000      -0.00000000 </v>
   <v>      -0.00000000       0.00000000       0.00000000 </v>
   <v>       0.00000000       0.00000000       0.00000000 </v>
   <v>       0.00000000       0.00000000      -0.00000000 </v>
   <v>       0.00000000      -0.00000000       0.00000000 </v>
   <v>      -0.00000000       0.00000000       0.00000000 </v>
   <v>      -0.00000000      -0.00000000       0.00000000 </v>
   <v>      -0.00000000       0.00000000      -0.00000000 </v>
   <v>      -0.00000000       0.00000000      -0.00000000 </v>
   <v>      -0.00000000      -0.00000000       0.00000000 </v>
   <v>      -0.00000000       0.00000000       0.00000000 </v>
   <v>      -0.00000000       0.00000000      -0.00000000 </v>
   <v>      -0.00000000      -0.00000000      -0.00000000 </v>
   <v>      -0.00000000      -0.00000000      -0.00000000 </v>
   <v>       0.00000000       0.00000000       0.00000000 </v>
   <v>       0.00000000      -0.00000000      -0.00000000 </v>
   <v>      -0.00000000       0.00000000      -0.00000000 </v>
   <v>      -0.00000000       0.00000000       0.00000000 </v>
   <v>       0.00000000       0.00000000       0.00000000 </v>
   <v>       0.00000000      -0.00000000      -0.00000000 </v>
   <v>       0.00000000      -0.00000000      -0.00000000 </v>
   <v>      -0.00000000      -0.00000000       0.00000000 </v>
   <v>       0.00000000      -0.00000000       0.00000000 </v>
   <v>      -0.00000000      -0.00000000      -0.00000000 </v>
   <v>       0.00000000       0.00000000      -0.00000000 </v>
   <v>       0.00000000       0.00000000       0.00000000 </v>
   <v>       0.00000000       0.00000000       0.00000000 </v>
   <v>       0.00000000       0.00000000      -0.00000000 </v>
   <v>      -0.00000000       0.00000000      -0.00000000 </v>
   <v>      -0.00000000      -0.00000000       0.00000000 </v>
   <v>      -0.00000000       0.00000000       0.00000000 </v>
   <v>      -0.00000000       0.00000000      -0.00000000 </v>
   <v>      -0.00000000      -0.00000000      -0.00000000 </v>
   <v>       0.00000000      -0.00000000       0.00000000 </v>
   <v>      -0.00000000      -0.00000000       0.00000000 </v>
   <v>       0.00000000       0.00000000      -0.00000000 </v>
   <v>       0.00000000       0.00000000      -0.00000000 </v>
   <v>      -0.00000000      -0.00000000      -0.00000000 </v>
   <v>       0.00000000      -0.00000000       0.00000000 </v>
   <v>       0.00000000       0.00000000      -0.00000000 </v>
   <v>       0.00000000       0.00000000      -0.00000000 </v>
   <v>       0.00000000       0.00000000       0.00000000 </v>
   <v>      -0.00000000      -0.00000000       0.00000000 </v>
   <v>       0.00000000      -0.00000000      -0.00000000 </v>
   <v>      -0.00000000       0.00000000       0.00000000 </v>
   <v>      -0.00000000       0.00000000       0.00000000 </v>
   <v>      -0.00000000      -0.00000000       0.00000000 </v>
   <v>       0.00000000       0.00000000      -0.00000000 </v>
   <v>      -0.00000000      -0.00000000      -0.00000000 </v>
   <v>      -0.00000000       0.00000000       0.00000000 </v>
   <v>       0.00000000       0.00000000       0.00000000 </v>
   <v>      -0.00000000      -0.00000000      -0.00000000 </v>
   <v>       0.00000000      -0.00000000      -0.00000000 </v>
   <v>      -0.00000000      -0.00000000       0.00000000 </v>
   <v>      -0.00000000      -0.00000000       0.00000000 </v>
   <v>      -0.00000000       0.00000000      -0.00000000 </v>
   <v>      -0.00000000      -0.00000000      -0.00000000 </v>
  </varray>
  <varray name="stress" >
   <v>      54.90171016       0.00000000      -0.00000000 </v>
   <v>       0.00000000      54.90171016       0.00000000 </v>
   <v>       0.00000000       0.00000000      54.90171016 </v>
  </varray>
  <energy>
   <i name="e_fr_energy">   -364.44658260 </i>
   <i name="e_wo_entrp">   -364.35415736 </i>
   <i name="e_0_energy">     -0.27727573 </i>
  </energy>
  <kpoints>
   <generation param="Gamma">
    <v type="int" name="divisions">       3        3        3 </v>
    <v name="usershift">      0.00000000       0.00000000       0.00000000 </v>
    <v name="genvec1">      0.33333333       0.00000000       0.00000000 </v>
    <v name="genvec2">      0.00000000       0.33333333       0.00000000 </v>
    <v name="genvec3">      0.00000000       0.00000000       0.33333333 </v>
    <v name="shift">      0.00000000       0.00000000       0.00000000 </v>
   </generation>
   <varray name="kpointlist" >
    <v>       0.00000000       0.00000000       0.00000000 </v>
    <v>       0.33333333       0.00000000       0.00000000 </v>
    <v>       0.33333333       0.33333333       0.00000000 </v>
    <v>      -0.33333333       0.33333333       0.00000000 </v>
    <v>       0.00000000       0.33333333       0.33333333 </v>
    <v>      -0.33333333       0.33333333       0.33333333 </v>
   </varray>
   <varray name="weights" >
    <v>       0.03703704 </v>
    <v>       0.29629630 </v>
    <v>       0.14814815 </v>
    <v>       0.29629630 </v>
    <v>       0.07407407 </v>
    <v>       0.14814815 </v>
   </varray>
  </kpoints>
  <time name="totalsc"> 6890.61 6885.05</time>
 </calculation>
 <calculation>
  <scstep>
   <time name="dav">  724.72  724.12</time>
   <time name="total">  754.38  753.75</time>
   <energy>
    <i name="alphaZ">  10788.19976491 </i>
    <i name="ewald">-158175.65166914 </i>
    <i name="hartreedc"> -56684.32197154 </i>
    <i name="XCdc">   5647.87240478 </i>
    <i name="pawpsdc"> 173494.33294202 </i>
    <i name="pawaedc">-182562.65493769 </i>
    <i name="eentropy">     -0.27709852 </i>
    <i name="bandstr"> -16884.90958850 </i>
    <i name="atom"> 224013.29143063 </i>
    <i name="e_fr_energy">   -364.11872304 </i>
    <i name="e_wo_entrp">   -363.84162453 </i>
    <i name="e_0_energy">   -364.02635687 </i>
   </energy>
  </scstep>
  <scstep>
   <time name="dav">  599.00  598.51</time>
   <time name="total">  626.35  625.83</time>
   <energy>
    <i name="e_fr_energy">   -364.45262848 </i>
    <i name="e_wo_entrp">   -364.17613729 </i>
    <i name="e_0_energy">   -364.36046475 </i>
   </energy>
  </scstep>
  <scstep>
   <time name="dav">  683.29  682.72</time>
   <time name="total">  710.64  710.05</time>
   <energy>
    <i name="e_fr_energy">   -364.44538115 </i>
    <i name="e_wo_entrp">   -364.16818656 </i>
    <i name="e_0_energy">   -364.35298295 </i>
   </energy>
  </scstep>
  <scstep>
   <time name="dav">  681.85  681.28</time>
   <time name="total">  709.22  708.63</time>
   <energy>
    <i name="e_fr_energy">   -364.44922870 </i>
    <i name="e_wo_entrp">   -364.17226496 </i>
    <i name="e_0_energy">   -364.35690746 </i>
   </energy>
  </scstep>
  <scstep>
   <time name="dav">  616.91  616.39</time>
   <time name="total">  644.28  643.74</time>
   <energy>
    <i name="e_fr_energy">   -364.44163227 </i>
    <i name="e_wo_entrp">   -364.16449856 </i>
    <i name="e_0_energy">   -364.34925437 </i>
   </energy>
  </scstep>
  <scstep>
   <time name="dav">  673.75  673.19</time>
   <time name="total">  701.16  700.58</time>
   <energy>
    <i name="e_fr_energy">   -364.44145213 </i>
    <i name="e_wo_entrp">   -364.16431273 </i>
    <i name="e_0_energy">   -364.34907233 </i>
   </energy>
  </scstep>
  <scstep>
   <time name="dav">  631.60  631.08</time>
   <time name="total">  659.00  658.46</time>
   <energy>
    <i name="e_fr_energy">   -364.44124419 </i>
    <i name="e_wo_entrp">   -364.16412330 </i>
    <i name="e_0_energy">   -364.34887056 </i>
   </energy>
  </scstep>
  <scstep>
   <time name="dav">  643.48  642.95</time>
   <time name="total">  670.89  670.33</time>
   <energy>
    <i name="e_fr_energy">   -364.44107172 </i>
    <i name="e_wo_entrp">   -364.16396151 </i>
    <i name="e_0_energy">   -364.34870165 </i>
   </energy>
  </scstep>
  <scstep>
   <time name="dav">  645.20  644.67</time>
   <time name="total">  672.61  672.05</time>
   <energy>
    <i name="e_fr_energy">   -364.44112121 </i>
    <i name="e_wo_entrp">   -364.16401450 </i>
    <i name="e_0_energy">   -364.34875230 </i>
   </energy>
  </scstep>
  <scstep>
   <time name="dav">  715.87  715.27</time>
   <time name="total">  743.27  742.65</time>
   <energy>
    <i name="e_fr_energy">   -364.44082058 </i>
    <i name="e_wo_entrp">   -364.16372213 </i>
    <i name="e_0_energy">   -364.34845443 </i>
   </energy>
  </scstep>
  <scstep>
   <time name="dav">  693.22  692.64</time>
   <time name="total">  720.64  720.05</time>
   <energy>
    <i name="e_fr_energy">   -364.44073263 </i>
    <i name="e_wo_entrp">   -364.16362649 </i>
    <i name="e_0_energy">   -364.34836392 </i>
   </energy>
  </scstep>
  <scstep>
   <time name="dav">  704.43  703.85</time>
   <time name="total">  734.18  733.58</time>
   <energy>
    <i name="e_fr_energy">   -364.44074052 </i>
    <i name="e_wo_entrp">   -364.16363591 </i>
    <i name="e_0_energy">   -364.34837231 </i>
   </energy>
  </scstep>
  <scstep>
   <time name="dav">  615.96  615.45</time>
   <time name="total">  645.69  645.15</time>
   <energy>
    <i name="e_fr_energy">   -364.44073657 </i>
    <i name="e_wo_entrp">   -364.16363090 </i>
    <i name="e_0_energy">   -364.34836802 </i>
   </energy>
  </scstep>
  <scstep>
   <time name="dav">  481.57  481.17</time>
   <time name="total">  511.32  510.89</time>
   <energy>
    <i name="e_fr_energy">   -364.44073897 </i>
    <i name="e_wo_entrp">   -364.16363209 </i>
    <i name="e_0_energy">   -364.34837001 </i>
   </energy>
  </scstep>
  <scstep>
   <time name="dav">  424.37  424.02</time>
   <time name="total">  454.12  453.74</time>
   <energy>
    <i name="e_fr_energy">   -364.44073657 </i>
    <i name="e_wo_entrp">   -364.16362647 </i>
    <i name="e_0_energy">   -364.34836654 </i>
   </energy>
  </scstep>
  <scstep>
   <time name="dav">  371.09  370.79</time>
   <time name="total">  373.65  373.34</time>
   <energy>
    <i name="alphaZ">  10788.19976491 </i>
    <i name="ewald">-158175.65166914 </i>
    <i name="hartreedc"> -56684.28874840 </i>
    <i name="XCdc">   5647.87043137 </i>
    <i name="pawpsdc"> 173494.55953623 </i>
    <i name="pawaedc">-182562.88089978 </i>
    <i name="eentropy">     -0.27711059 </i>
    <i name="bandstr"> -16885.26347206 </i>
    <i name="atom"> 224013.29143063 </i>
    <i name="e_fr_energy">   -364.44073683 </i>
    <i name="e_wo_entrp">   -364.16362624 </i>
    <i name="e_0_energy">   -364.34836664 </i>
   </energy>
  </scstep>
  <structure>
   <crystal>
    <varray name="basis" >
     <v>       0.00000000       6.83850000       6.83850000 </v>
     <v>       6.83850000       0.00000000       6.83850000 </v>
     <v>       6.83850000       6.83850000       0.00000000 </v>
    </varray>
    <i name="volume">    639.60602993 </i>
    <varray name="rec_basis" >
     <v>      -0.07311545       0.07311545       0.07311545 </v>
     <v>       0.07311545      -0.07311545       0.07311545 </v>
     <v>       0.07311545       0.07311545      -0.07311545 </v>
    </varray>
   </crystal>
   <varray name="positions" >
    <v>      -0.00219346       0.00219346       0.00219346 </v>
    <v>       0.00000000       0.00000000       0.25000000 </v>
    <v>       0.00000000       0.00000000       0.50000000 </v>
    <v>       0.00000000       0.00000000       0.75000000 </v>
    <v>       0.00000000       0.25000000       0.00000000 </v>
    <v>       0.00000000       0.25000000       0.25000000 </v>
    <v>       0.00000000       0.25000000       0.50000000 </v>
    <v>       0.00000000       0.25000000       0.75000000 </v>
    <v>       0.00000000       0.50000000       0.00000000 </v>
    <v>       0.00000000       0.50000000       0.25000000 </v>
    <v>       0.00000000       0.50000000       0.50000000 </v>
    <v>       0.00000000       0.50000000       0.75000000 </v>
    <v>       0.00000000       0.75000000       0.00000000 </v>
    <v>       0.00000000       0.75000000       0.25000000 </v>
    <v>       0.00000000       0.75000000       0.50000000 </v>
    <v>       0.00000000       0.75000000       0.75000000 </v>
    <v>       0.25000000       0.00000000       0.00000000 </v>
    <v>       0.25000000       0.00000000       0.25000000 </v>
    <v>       0.25000000       0.00000000       0.50000000 </v>
    <v>       0.25000000       0.00000000       0.75000000 </v>
    <v>       0.25000000       0.25000000       0.00000000 </v>
    <v>       0.25000000       0.25000000       0.25000000 </v>
    <v>       0.25000000       0.25000000       0.50000000 </v>
    <v>       0.25000000       0.25000000       0.75000000 </v>
    <v>       0.25000000       0.50000000       0.00000000 </v>
    <v>       0.25000000       0.50000000       0.25000000 </v>
    <v>       0.25000000       0.50000000       0.50000000 </v>
    <v>       0.25000000       0.50000000       0.75000000 </v>
    <v>       0.25000000       0.75000000       0.00000000 </v>
    <v>       0.25000000       0.75000000       0.25000000 </v>
    <v>       0.25000000       0.75000000       0.50000000 </v>
    <v>       0.25000000       0.75000000       0.75000000 </v>
    <v>       0.50000000       0.00000000       0.00000000 </v>
    <v>       0.50000000       0.00000000       0.25000000 </v>
    <v>       0.50000000       0.00000000       0.50000000 </v>
    <v>       0.50000000       0.00000000       0.75000000 </v>
    <v>       0.50000000       0.25000000       0.00000000 </v>
    <v>       0.50000000       0.25000000       0.25000000 </v>
    <v>       0.50000000       0.25000000       0.50000000 </v>
    <v>       0.50000000       0.25000000       0.75000000 </v>
    <v>       0.50000000       0.50000000       0.00000000 </v>
    <v>       0.50000000       0.50000000       0.25000000 </v>
    <v>       0.50000000       0.50000000       0.50000000 </v>
    <v>       0.50000000       0.50000000       0.75000000 </v>
    <v>       0.50000000       0.75000000       0.00000000 </v>
    <v>       0.50000000       0.75000000       0.25000000 </v>
    <v>       0.50000000       0.75000000       0.50000000 </v>
    <v>       0.50000000       0.75000000       0.75000000 </v>
    <v>       0.75000000       0.00000000       0.00000000 </v>
    <v>       0.75000000       0.00000000       0.25000000 </v>
    <v>       0.75000000       0.00000000       0.50000000 </v>
    <v>       0.75000000       0.00000000       0.75000000 </v>
    <v>       0.75000000       0.25000000       0.00000000 </v>
    <v>       0.75000000       0.25000000       0.25000000 </v>
    <v>       0.75000000       0.25000000       0.50000000 </v>
    <v>       0.75000000       0.25000000       0.75000000 </v>
    <v>       0.75000000       0.50000000       0.00000000 </v>
    <v>       0.75000000       0.50000000       0.25000000 </v>
    <v>       0.75000000       0.50000000       0.50000000 </v>
    <v>       0.75000000       0.50000000       0.75000000 </v>
    <v>       0.75000000       0.75000000       0.00000000 </v>
    <v>       0.75000000       0.75000000       0.25000000 </v>
    <v>       0.75000000       0.75000000       0.50000000 </v>
    <v>       0.75000000       0.75000000       0.75000000 </v>
   </varray>
  </structure>
  <varray name="forces" >
   <v>      -0.38900577       0.00000000      -0.00000000 </v>
   <v>       0.04904806       0.05806067      -0.00000000 </v>
   <v>      -0.00002111      -0.00037000      -0.00000000 </v>
   <v>       0.04506363       0.05238974      -0.00000000 </v>
   <v>       0.04904806       0.00000000       0.05806067 </v>
   <v>       0.00276062       0.00171835       0.00171835 </v>
   <v>       0.00027780       0.00169280      -0.00061517 </v>
   <v>      -0.00361480       0.00067012      -0.00067012 </v>
   <v>      -0.00002111       0.00000000      -0.00037000 </v>
   <v>       0.00027780      -0.00061517       0.00169280 </v>
   <v>      -0.00020460       0.00000000      -0.00000000 </v>
   <v>       0.00033170      -0.00068848       0.00169443 </v>
   <v>       0.04506363       0.00000000       0.05238974 </v>
   <v>      -0.00361480      -0.00067012       0.00067012 </v>
   <v>       0.00033170       0.00169443      -0.00068848 </v>
   <v>       0.00271798       0.00163848       0.00163848 </v>
   <v>      -0.00361480      -0.00067012      -0.00067012 </v>
   <v>       0.00033170       0.00169443       0.00068848 </v>
   <v>       0.00271798       0.00163848      -0.00163848 </v>
   <v>       0.04506363       0.00000000      -0.05238974 </v>
   <v>       0.00033170       0.00068848       0.00169443 </v>
   <v>       0.00045176       0.00000000      -0.00000000 </v>
   <v>       0.00027780       0.00061517      -0.00169280 </v>
   <v>      -0.00145709       0.00000000      -0.00005455 </v>
   <v>       0.00271798      -0.00163848       0.00163848 </v>
   <v>       0.00027780      -0.00169280       0.00061517 </v>
   <v>      -0.00095322      -0.00001309      -0.00001309 </v>
   <v>       0.00030967       0.00000000      -0.00008631 </v>
   <v>       0.04506363      -0.05238974      -0.00000000 </v>
   <v>      -0.00145709      -0.00005455      -0.00000000 </v>
   <v>       0.00030967      -0.00008631      -0.00000000 </v>
   <v>       0.00466243       0.00000000      -0.00000000 </v>
   <v>      -0.00020460       0.00000000      -0.00000000 </v>
   <v>       0.00033170      -0.00068848      -0.00169443 </v>
   <v>      -0.00002111       0.00000000       0.00037000 </v>
   <v>       0.00027780      -0.00061517      -0.00169280 </v>
   <v>       0.00033170      -0.00169443      -0.00068848 </v>
   <v>       0.00276062      -0.00171835      -0.00171835 </v>
   <v>       0.00018769       0.00000000       0.00001916 </v>
   <v>      -0.00095322       0.00001309      -0.00001309 </v>
   <v>      -0.00002111       0.00037000      -0.00000000 </v>
   <v>       0.00018769       0.00001916      -0.00000000 </v>
   <v>      -0.00171050       0.00000000      -0.00000000 </v>
   <v>       0.00030967       0.00008631      -0.00000000 </v>
   <v>       0.00027780      -0.00169280      -0.00061517 </v>
   <v>      -0.00095322      -0.00001309       0.00001309 </v>
   <v>       0.00030967       0.00000000       0.00008631 </v>
   <v>       0.00271798      -0.00163848      -0.00163848 </v>
   <v>      -0.00361480       0.00067012       0.00067012 </v>
   <v>       0.04904806       0.00000000      -0.05806067 </v>
   <v>       0.00276062       0.00171835      -0.00171835 </v>
   <v>       0.00027780       0.00169280       0.00061517 </v>
   <v>       0.04904806      -0.05806067      -0.00000000 </v>
   <v>       0.00451778       0.00000000      -0.00000000 </v>
   <v>       0.00018769      -0.00001916      -0.00000000 </v>
   <v>      -0.00145709       0.00005455      -0.00000000 </v>
   <v>       0.00276062      -0.00171835       0.00171835 </v>
   <v>       0.00018769       0.00000000      -0.00001916 </v>
   <v>      -0.00095322       0.00001309       0.00001309 </v>
   <v>       0.00033170      -0.00169443       0.00068848 </v>
   <v>       0.00027780       0.00061517       0.00169280 </v>
   <v>      -0.00145709       0.00000000       0.00005455 </v>
   <v>       0.00033170       0.00068848      -0.00169443 </v>
   <v>       0.00045176       0.00000000      -0.00000000 </v>
  </varray>
  <varray name="stress" >
   <v>      54.91766245      -0.00000000       0.00000000 </v>
   <v>       0.00000000      54.91992142       0.00000000 </v>
   <v>       0.00000000       0.00000000      54.91992142 </v>
  </varray>
  <energy>
   <i name="e_fr_energy">   -364.44073683 </i>
   <i name="e_wo_entrp">   -364.34836664 </i>
   <i name="e_0_energy">     -0.27711059 </i>
  </energy>
  <kpoints>
   <generation param="Gamma">
    <v type="int" name="divisions">       3        3        3 </v>
    <v name="usershift">      0.00000000       0.00000000       0.00000000 </v>
    <v name="genvec1">      0.33333333       0.00000000       0.00000000 </v>
    <v name="genvec2">      0.00000000       0.33333333       0.00000000 </v>
    <v name="genvec3">      0.00000000       0.00000000       0.33333333 </v>
    <v name="shift">      0.00000000       0.00000000       0.00000000 </v>
   </generation>
   <varray name="kpointlist" >
    <v>       0.00000000       0.00000000       0.00000000 </v>
    <v>       0.33333333       0.00000000       0.00000000 </v>
    <v>       0.33333333       0.33333333       0.00000000 </v>
    <v>      -0.33333333       0.33333333       0.00000000 </v>
    <v>       0.00000000       0.33333333       0.33333333 </v>
    <v>      -0.33333333       0.33333333       0.33333333 </v>
   </varray>
   <varray name="weights" >
    <v>       0.03703704 </v>
    <v>       0.29629630 </v>
    <v>       0.14814815 </v>
    <v>       0.29629630 </v>
    <v>       0.07407407 </v>
    <v>       0.14814815 </v>
   </varray>
  </kpoints>
  <time name="totalsc">11139.0711129.84</time>
 </calculation>
 <calculation>
  <scstep>
   <time name="dav">  725.32  724.72</time>
   <time name="total">  751.20  750.58</time>
   <energy>
    <i name="alphaZ">  10788.19976491 </i>
    <i name="ewald">-158176.16494173 </i>
    <i name="hartreedc"> -56683.81994526 </i>
    <i name="XCdc">   5647.86956483 </i>
    <i name="pawpsdc"> 173494.55970392 </i>
    <i name="pawaedc">-182562.88148813 </i>
    <i name="eentropy">     -0.27720999 </i>
    <i name="bandstr"> -16885.07838966 </i>
    <i name="atom"> 224013.29143063 </i>
    <i name="e_fr_energy">   -364.30151048 </i>
    <i name="e_wo_entrp">   -364.02430049 </i>
    <i name="e_0_energy">   -364.20910715 </i>
   </energy>
  </scstep>
  <scstep>
   <time name="dav">  597.05  596.56</time>
   <time name="total">  627.04  626.52</time>
   <energy>
    <i name="e_fr_energy">   -364.44528690 </i>
    <i name="e_wo_entrp">   -364.16812492 </i>
    <i name="e_0_energy">   -364.35289957 </i>
   </energy>
  </scstep>
  <scstep>
   <time name="dav">  691.00  690.43</time>
   <time name="total">  720.96  720.36</time>
   <energy>
    <i name="e_fr_energy">   -364.44521876 </i>
    <i name="e_wo_entrp">   -364.16797267 </i>
    <i name="e_0_energy">   -364.35280340 </i>
   </energy>
  </scstep>
  <scstep>
   <time name="dav">  702.05  701.47</time>
   <time name="total">  732.05  731.44</time>
   <energy>
    <i name="e_fr_energy">   -364.44622102 </i>
    <i name="e_wo_entrp">   -364.16900312 </i>
    <i name="e_0_energy">   -364.35381505 </i>
   </energy>
  </scstep>
  <scstep>
   <time name="dav">  620.96  620.44</time>
   <time name="total">  650.96  650.42</time>
   <energy>
    <i name="e_fr_energy">   -364.44523928 </i>
    <i name="e_wo_entrp">   -364.16800282 </i>
    <i name="e_0_energy">   -364.35282713 </i>
   </energy>
  </scstep>
  <scstep>
   <time name="dav">  656.98  656.44</time>
   <time name="total">  686.99  686.41</time>
   <energy>
    <i name="e_fr_energy">   -364.44520443 </i>
    <i name="e_wo_entrp">   -364.16796992 </i>
    <i name="e_0_energy">   -364.35279293 </i>
   </energy>
  </scstep>
  <scstep>
   <time name="dav">  653.08  652.54</time>
   <time name="total">  682.75  682.18</time>
   <energy>
    <i name="e_fr_energy">   -364.44518023 </i>
    <i name="e_wo_entrp">   -364.16794808 </i>
    <i name="e_0_energy">   -364.35276952 </i>
   </energy>
  </scstep>
  <scstep>
   <time name="dav">  653.18  652.65</time>
   <time name="total">  682.89  682.33</time>
   <energy>
    <i name="e_fr_energy">   -364.44515846 </i>
    <i name="e_wo_entrp">   -364.16792937 </i>
    <i name="e_0_energy">   -364.35274876 </i>
   </energy>
  </scstep>
  <scstep>
   <time name="dav">  661.20  660.65</time>
   <time name="total">  690.92  690.35</time>
   <energy>
    <i name="e_fr_energy">   -364.44519204 </i>
    <i name="e_wo_entrp">   -364.16796561 </i>
    <i name="e_0_energy">   -364.35278323 </i>
   </energy>
  </scstep>
  <scstep>
   <time name="dav">  654.72  654.17</time>
   <time name="total">  684.46  683.89</time>
   <energy>
    <i name="e_fr_energy">   -364.44513829 </i>
    <i name="e_wo_entrp">   -364.16790964 </i>
    <i name="e_0_energy">   -364.35272874 </i>
   </energy>
  </scstep>
  <scstep>
   <time name="dav">  704.62  704.03</time>
   <time name="total">  734.37  733.76</time>
   <energy>
    <i name="e_fr_energy">   -364.44512811 </i>
    <i name="e_wo_entrp">   -364.16790014 </i>
    <i name="e_0_energy">   -364.35271878 </i>
   </energy>
  </scstep>
  <scstep>
   <time name="dav">  582.43  581.95</time>
   <time name="total">  609.82  609.31</time>
   <energy>
    <i name="e_fr_energy">   -364.44512916 </i>
    <i name="e_wo_entrp">   -364.16790251 </i>
    <i name="e_0_energy">   -364.35272028 </i>
   </energy>
  </scstep>
  <scstep>
   <time name="dav">  379.56  379.24</time>
   <time name="total">  382.12  381.80</time>
   <energy>
    <i name="alphaZ">  10788.19976491 </i>
    <i name="ewald">-158176.16494173 </i>
    <i name="hartreedc"> -56683.80238657 </i>
    <i name="XCdc">   5647.86880923 </i>
    <i name="pawpsdc"> 173494.36942399 </i>
    <i name="pawaedc">-182562.68994557 </i>
    <i name="eentropy">     -0.27722636 </i>
    <i name="bandstr"> -16885.24005684 </i>
    <i name="atom"> 224013.29143063 </i>
    <i name="e_fr_energy">   -364.44512831 </i>
    <i name="e_wo_entrp">   -364.16790194 </i>
    <i name="e_0_energy">   -364.35271952 </i>
   </energy>
  </scstep>
  <structure>
   <crystal>
    <varray name="basis" >
     <v>       0.00000000       6.83850000       6.83850000 </v>
     <v>       6.83850000       0.00000000       6.83850000 </v>
     <v>       6.83850000       6.83850000       0.00000000 </v>
    </varray>
    <i name="volume">    639.60602993 </i>
    <varray name="rec_basis" >
     <v>      -0.07311545       0.07311545       0.07311545 </v>
     <v>       0.07311545      -0.07311545       0.07311545 </v>
     <v>       0.07311545       0.07311545      -0.07311545 </v>
    </varray>
   </crystal>
   <varray name="positions" >
    <v>      -0.00109673       0.00109673       0.00109673 </v>
    <v>       0.00000000       0.00000000       0.25000000 </v>
    <v>       0.00000000       0.00000000       0.50000000 </v>
    <v>       0.00000000       0.00000000       0.75000000 </v>
    <v>       0.00000000       0.25000000       0.00000000 </v>
    <v>       0.00000000       0.25000000       0.25000000 </v>
    <v>       0.00000000       0.25000000       0.50000000 </v>
    <v>       0.00000000       0.25000000       0.75000000 </v>
    <v>       0.00000000       0.50000000       0.00000000 </v>
    <v>       0.00000000       0.50000000       0.25000000 </v>
    <v>       0.00000000       0.50000000       0.50000000 </v>
    <v>       0.00000000       0.50000000       0.75000000 </v>
    <v>       0.00000000       0.75000000       0.00000000 </v>
    <v>       0.00000000       0.75000000       0.25000000 </v>
    <v>       0.00000000       0.75000000       0.50000000 </v>
    <v>       0.00000000       0.75000000       0.75000000 </v>
    <v>       0.25000000       0.00000000       0.00000000 </v>
    <v>       0.25000000       0.00000000       0.25000000 </v>
    <v>       0.25000000       0.00000000       0.50000000 </v>
    <v>       0.25000000       0.00000000       0.75000000 </v>
    <v>       0.25000000       0.25000000       0.00000000 </v>
    <v>       0.25000000       0.25000000       0.25000000 </v>
    <v>       0.25000000       0.25000000       0.50000000 </v>
    <v>       0.25000000       0.25000000       0.75000000 </v>
    <v>       0.25000000       0.50000000       0.00000000 </v>
    <v>       0.25000000       0.50000000       0.25000000 </v>
    <v>       0.25000000       0.50000000       0.50000000 </v>
    <v>       0.25000000       0.50000000       0.75000000 </v>
    <v>       0.25000000       0.75000000       0.00000000 </v>
    <v>       0.25000000       0.75000000       0.25000000 </v>
    <v>       0.25000000       0.75000000       0.50000000 </v>
    <v>       0.25000000       0.75000000       0.75000000 </v>
    <v>       0.50000000       0.00000000       0.00000000 </v>
    <v>       0.50000000       0.00000000       0.25000000 </v>
    <v>       0.50000000       0.00000000       0.50000000 </v>
    <v>       0.50000000       0.00000000       0.75000000 </v>
    <v>       0.50000000       0.25000000       0.00000000 </v>
    <v>       0.50000000       0.25000000       0.25000000 </v>
    <v>       0.50000000       0.25000000       0.50000000 </v>
    <v>       0.50000000       0.25000000       0.75000000 </v>
    <v>       0.50000000       0.50000000       0.00000000 </v>
    <v>       0.50000000       0.50000000       0.25000000 </v>
    <v>       0.50000000       0.50000000       0.50000000 </v>
    <v>       0.50000000       0.50000000       0.75000000 </v>
    <v>       0.50000000       0.75000000       0.00000000 </v>
    <v>       0.50000000       0.75000000       0.25000000 </v>
    <v>       0.50000000       0.75000000       0.50000000 </v>
    <v>       0.50000000       0.75000000       0.75000000 </v>
    <v>       0.75000000       0.00000000       0.00000000 </v>
    <v>       0.75000000       0.00000000       0.25000000 </v>
    <v>       0.75000000       0.00000000       0.50000000 </v>
    <v>       0.75000000       0.00000000       0.75000000 </v>
    <v>       0.75000000       0.25000000       0.00000000 </v>
    <v>       0.75000000       0.25000000       0.25000000 </v>
    <v>       0.75000000       0.25000000       0.50000000 </v>
    <v>       0.75000000       0.25000000       0.75000000 </v>
    <v>       0.75000000       0.50000000       0.00000000 </v>
    <v>       0.75000000       0.50000000       0.25000000 </v>
    <v>       0.75000000       0.50000000       0.50000000 </v>
    <v>       0.75000000       0.50000000       0.75000000 </v>
    <v>       0.75000000       0.75000000       0.00000000 </v>
    <v>       0.75000000       0.75000000       0.25000000 </v>
    <v>       0.75000000       0.75000000       0.50000000 </v>
    <v>       0.75000000       0.75000000       0.75000000 </v>
   </varray>
  </structure>
  <varray name="forces" >
   <v>      -0.19651489      -0.00000000       0.00000000 </v>
   <v>       0.02386801       0.02798779       0.00000000 </v>
   <v>       0.00006308      -0.00004920       0.00000000 </v>
   <v>       0.02297383       0.02663738       0.00000000 </v>
   <v>       0.02386801      -0.00000000       0.02798779 </v>
   <v>       0.00142612       0.00090386       0.00090386 </v>
   <v>       0.00018827       0.00088811      -0.00033758 </v>
   <v>      -0.00155323       0.00021014      -0.00021014 </v>
   <v>       0.00006308      -0.00000000      -0.00004920 </v>
   <v>       0.00018827      -0.00033758       0.00088811 </v>
   <v>      -0.00004588      -0.00000000       0.00000000 </v>
   <v>       0.00017936      -0.00034860       0.00090828 </v>
   <v>       0.02297383      -0.00000000       0.02663738 </v>
   <v>      -0.00155323      -0.00021014       0.00021014 </v>
   <v>       0.00017936       0.00090828      -0.00034860 </v>
   <v>       0.00138031       0.00089246       0.00089246 </v>
   <v>      -0.00155323      -0.00021014      -0.00021014 </v>
   <v>       0.00017936       0.00090828       0.00034860 </v>
   <v>       0.00138031       0.00089246      -0.00089246 </v>
   <v>       0.02297383      -0.00000000      -0.02663738 </v>
   <v>       0.00017936       0.00034860       0.00090828 </v>
   <v>       0.00018106      -0.00000000       0.00000000 </v>
   <v>       0.00018827       0.00033758      -0.00088811 </v>
   <v>      -0.00066891      -0.00000000      -0.00001166 </v>
   <v>       0.00138031      -0.00089246       0.00089246 </v>
   <v>       0.00018827      -0.00088811       0.00033758 </v>
   <v>      -0.00039966      -0.00002575      -0.00002575 </v>
   <v>       0.00022207      -0.00000000      -0.00005374 </v>
   <v>       0.02297383      -0.02663738       0.00000000 </v>
   <v>      -0.00066891      -0.00001166       0.00000000 </v>
   <v>       0.00022207      -0.00005374       0.00000000 </v>
   <v>       0.00215324      -0.00000000       0.00000000 </v>
   <v>      -0.00004588      -0.00000000       0.00000000 </v>
   <v>       0.00017936      -0.00034860      -0.00090828 </v>
   <v>       0.00006308      -0.00000000       0.00004920 </v>
   <v>       0.00018827      -0.00033758      -0.00088811 </v>
   <v>       0.00017936      -0.00090828      -0.00034860 </v>
   <v>       0.00142612      -0.00090386      -0.00090386 </v>
   <v>       0.00014144      -0.00000000      -0.00000738 </v>
   <v>      -0.00039966       0.00002575      -0.00002575 </v>
   <v>       0.00006308       0.00004920       0.00000000 </v>
   <v>       0.00014144      -0.00000738       0.00000000 </v>
   <v>      -0.00080085      -0.00000000       0.00000000 </v>
   <v>       0.00022207       0.00005374       0.00000000 </v>
   <v>       0.00018827      -0.00088811      -0.00033758 </v>
   <v>      -0.00039966      -0.00002575       0.00002575 </v>
   <v>       0.00022207      -0.00000000       0.00005374 </v>
   <v>       0.00138031      -0.00089246      -0.00089246 </v>
   <v>      -0.00155323       0.00021014       0.00021014 </v>
   <v>       0.02386801      -0.00000000      -0.02798779 </v>
   <v>       0.00142612       0.00090386      -0.00090386 </v>
   <v>       0.00018827       0.00088811       0.00033758 </v>
   <v>       0.02386801      -0.02798779       0.00000000 </v>
   <v>       0.00213883      -0.00000000       0.00000000 </v>
   <v>       0.00014144       0.00000738       0.00000000 </v>
   <v>      -0.00066891       0.00001166       0.00000000 </v>
   <v>       0.00142612      -0.00090386       0.00090386 </v>
   <v>       0.00014144      -0.00000000       0.00000738 </v>
   <v>      -0.00039966       0.00002575       0.00002575 </v>
   <v>       0.00017936      -0.00090828       0.00034860 </v>
   <v>       0.00018827       0.00033758       0.00088811 </v>
   <v>      -0.00066891      -0.00000000       0.00001166 </v>
   <v>       0.00017936       0.00034860      -0.00090828 </v>
   <v>       0.00018106      -0.00000000       0.00000000 </v>
  </varray>
  <varray name="stress" >
   <v>      54.81070761      -0.00000000       0.00000000 </v>
   <v>       0.00000000      54.80961040       0.00000000 </v>
   <v>       0.00000000       0.00000000      54.80961040 </v>
  </varray>
  <energy>
   <i name="e_fr_energy">   -364.44512831 </i>
   <i name="e_wo_entrp">   -364.35271952 </i>
   <i name="e_0_energy">     -0.27722636 </i>
  </energy>
  <kpoints>
   <generation param="Gamma">
    <v type="int" name="divisions">       3        3        3 </v>
    <v name="usershift">      0.00000000       0.00000000       0.00000000 </v>
    <v name="genvec1">      0.33333333       0.00000000       0.00000000 </v>
    <v name="genvec2">      0.00000000       0.33333333       0.00000000 </v>
    <v name="genvec3">      0.00000000       0.00000000       0.33333333 </v>
    <v name="shift">      0.00000000       0.00000000       0.00000000 </v>
   </generation>
   <varray name="kpointlist" >
    <v>       0.00000000       0.00000000       0.00000000 </v>
    <v>       0.33333333       0.00000000       0.00000000 </v>
    <v>       0.33333333       0.33333333       0.00000000 </v>
    <v>      -0.33333333       0.33333333       0.00000000 </v>
    <v>       0.00000000       0.33333333       0.33333333 </v>
    <v>      -0.33333333       0.33333333       0.33333333 </v>
   </varray>
   <varray name="weights" >
    <v>       0.03703704 </v>
    <v>       0.29629630 </v>
    <v>       0.14814815 </v>
    <v>       0.29629630 </v>
    <v>       0.07407407 </v>
    <v>       0.14814815 </v>
   </varray>
  </kpoints>
  <time name="totalsc"> 9443.02 9435.20</time>
 </calculation>
 <calculation>
  <scstep>
   <time name="dav">  732.15  731.54</time>
   <time name="total">  761.98  761.35</time>
   <energy>
    <i name="alphaZ">  10788.19976491 </i>
    <i name="ewald">-158176.16494173 </i>
    <i name="hartreedc"> -56683.84508329 </i>
    <i name="XCdc">   5647.87105433 </i>
    <i name="pawpsdc"> 173494.34769950 </i>
    <i name="pawaedc">-182562.66682475 </i>
    <i name="eentropy">     -0.27721998 </i>
    <i name="bandstr"> -16884.91379837 </i>
    <i name="atom"> 224013.29143063 </i>
    <i name="e_fr_energy">   -364.15791876 </i>
    <i name="e_wo_entrp">   -363.88069878 </i>
    <i name="e_0_energy">   -364.06551210 </i>
   </energy>
  </scstep>
  <scstep>
   <time name="dav">  599.86  599.37</time>
   <time name="total">  629.88  629.36</time>
   <energy>
    <i name="e_fr_energy">   -364.45484701 </i>
    <i name="e_wo_entrp">   -364.17810066 </i>
    <i name="e_0_energy">   -364.36259822 </i>
   </energy>
  </scstep>
  <scstep>
   <time name="dav">  671.27  670.71</time>
   <time name="total">  701.30  700.71</time>
   <energy>
    <i name="e_fr_energy">   -364.44889378 </i>
    <i name="e_wo_entrp">   -364.17159782 </i>
    <i name="e_0_energy">   -364.35646179 </i>
   </energy>
  </scstep>
  <scstep>
   <time name="dav">  693.53  692.95</time>
   <time name="total">  723.56  722.96</time>
   <energy>
    <i name="e_fr_energy">   -364.45221396 </i>
    <i name="e_wo_entrp">   -364.17510908 </i>
    <i name="e_0_energy">   -364.35984566 </i>
   </energy>
  </scstep>
  <scstep>
   <time name="dav">  624.92  624.44</time>
   <time name="total">  654.88  654.38</time>
   <energy>
    <i name="e_fr_energy">   -364.44587652 </i>
    <i name="e_wo_entrp">   -364.16862357 </i>
    <i name="e_0_energy">   -364.35345887 </i>
   </energy>
  </scstep>
  <scstep>
   <time name="dav">  682.81  682.24</time>
   <time name="total">  712.79  712.20</time>
   <energy>
    <i name="e_fr_energy">   -364.44572607 </i>
    <i name="e_wo_entrp">   -364.16847134 </i>
    <i name="e_0_energy">   -364.35330783 </i>
   </energy>
  </scstep>
  <scstep>
   <time name="dav">  635.28  634.75</time>
   <time name="total">  665.07  664.53</time>
   <energy>
    <i name="e_fr_energy">   -364.44553827 </i>
    <i name="e_wo_entrp">   -364.16829970 </i>
    <i name="e_0_energy">   -364.35312541 </i>
   </energy>
  </scstep>
  <scstep>
   <time name="dav">  644.36  643.83</time>
   <time name="total">  674.20  673.64</time>
   <energy>
    <i name="e_fr_energy">   -364.44539669 </i>
    <i name="e_wo_entrp">   -364.16816951 </i>
    <i name="e_0_energy">   -364.35298763 </i>
   </energy>
  </scstep>
  <scstep>
   <time name="dav">  649.99  649.45</time>
   <time name="total">  679.85  679.28</time>
   <energy>
    <i name="e_fr_energy">   -364.44547474 </i>
    <i name="e_wo_entrp">   -364.16825319 </i>
    <i name="e_0_energy">   -364.35306755 </i>
   </energy>
  </scstep>
  <scstep>
   <time name="dav">  693.30  692.73</time>
   <time name="total">  723.18  722.58</time>
   <energy>
    <i name="e_fr_energy">   -364.44519883 </i>
    <i name="e_wo_entrp">   -364.16798038 </i>
    <i name="e_0_energy">   -364.35279268 </i>
   </energy>
  </scstep>
  <scstep>
   <time name="dav">  698.32  697.74</time>
   <time name="total">  728.34  727.74</time>
   <energy>
    <i name="e_fr_energy">   -364.44512453 </i>
    <i name="e_wo_entrp">   -364.16790168 </i>
    <i name="e_0_energy">   -364.35271692 </i>
   </energy>
  </scstep>
  <scstep>
   <time name="dav">  694.89  694.33</time>
   <time name="total">  721.14  720.55</time>
   <energy>
    <i name="e_fr_energy">   -364.44513182 </i>
    <i name="e_wo_entrp">   -364.16791006 </i>
    <i name="e_0_energy">   -364.35272457 </i>
   </energy>
  </scstep>
  <scstep>
   <time name="dav">  620.28  619.77</time>
   <time name="total">  646.51  645.98</time>
   <energy>
    <i name="e_fr_energy">   -364.44512835 </i>
    <i name="e_wo_entrp">   -364.16790581 </i>
    <i name="e_0_energy">   -364.35272084 </i>
   </energy>
  </scstep>
  <scstep>
   <time name="dav">  444.50  444.13</time>
   <time name="total">  470.66  470.27</time>
   <energy>
    <i name="e_fr_energy">   -364.44513009 </i>
    <i name="e_wo_entrp">   -364.16790586 </i>
    <i name="e_0_energy">   -364.35272201 </i>
   </energy>
  </scstep>
  <scstep>
   <time name="dav">  417.30  416.96</time>
   <time name="total">  443.46  443.09</time>
   <energy>
    <i name="e_fr_energy">   -364.44512825 </i>
    <i name="e_wo_entrp">   -364.16790175 </i>
    <i name="e_0_energy">   -364.35271942 </i>
   </energy>
  </scstep>
  <scstep>
   <time name="dav">  376.04  375.78</time>
   <time name="total">  378.62  378.36</time>
   <energy>
    <i name="alphaZ">  10788.19976491 </i>
    <i name="ewald">-158176.16494173 </i>
    <i name="hartreedc"> -56683.79087623 </i>
    <i name="XCdc">   5647.86837581 </i>
    <i name="pawpsdc"> 173494.33944136 </i>
    <i name="pawaedc">-182562.65811867 </i>
    <i name="eentropy">     -0.27722687 </i>
    <i name="bandstr"> -16885.25297769 </i>
    <i name="atom"> 224013.29143063 </i>
    <i name="e_fr_energy">   -364.44512848 </i>
    <i name="e_wo_entrp">   -364.16790161 </i>
    <i name="e_0_energy">   -364.35271953 </i>
   </energy>
  </scstep>
  <structure>
   <crystal>
    <varray name="basis" >
     <v>       0.00000000       6.83850000       6.83850000 </v>
     <v>       6.83850000       0.00000000       6.83850000 </v>
     <v>       6.83850000       6.83850000       0.00000000 </v>
    </varray>
    <i name="volume">    639.60602993 </i>
    <varray name="rec_basis" >
     <v>      -0.07311545       0.07311545       0.07311545 </v>
     <v>       0.07311545      -0.07311545       0.07311545 </v>
     <v>       0.07311545       0.07311545      -0.07311545 </v>
    </varray>
   </crystal>
   <varray name="positions" >
    <v>       0.00109673      -0.00109673      -0.00109673 </v>
    <v>       0.00000000       0.00000000       0.25000000 </v>
    <v>       0.00000000       0.00000000       0.50000000 </v>
    <v>       0.00000000       0.00000000       0.75000000 </v>
    <v>       0.00000000       0.25000000       0.00000000 </v>
    <v>       0.00000000       0.25000000       0.25000000 </v>
    <v>       0.00000000       0.25000000       0.50000000 </v>
    <v>       0.00000000       0.25000000       0.75000000 </v>
    <v>       0.00000000       0.50000000       0.00000000 </v>
    <v>       0.00000000       0.50000000       0.25000000 </v>
    <v>       0.00000000       0.50000000       0.50000000 </v>
    <v>       0.00000000       0.50000000       0.75000000 </v>
    <v>       0.00000000       0.75000000       0.00000000 </v>
    <v>       0.00000000       0.75000000       0.25000000 </v>
    <v>       0.00000000       0.75000000       0.50000000 </v>
    <v>       0.00000000       0.75000000       0.75000000 </v>
    <v>       0.25000000       0.00000000       0.00000000 </v>
    <v>       0.25000000       0.00000000       0.25000000 </v>
    <v>       0.25000000       0.00000000       0.50000000 </v>
    <v>       0.25000000       0.00000000       0.75000000 </v>
    <v>       0.25000000       0.25000000       0.00000000 </v>
    <v>       0.25000000       0.25000000       0.25000000 </v>
    <v>       0.25000000       0.25000000       0.50000000 </v>
    <v>       0.25000000       0.25000000       0.75000000 </v>
    <v>       0.25000000       0.50000000       0.00000000 </v>
    <v>       0.25000000       0.50000000       0.25000000 </v>
    <v>       0.25000000       0.50000000       0.50000000 </v>
    <v>       0.25000000       0.50000000       0.75000000 </v>
    <v>       0.25000000       0.75000000       0.00000000 </v>
    <v>       0.25000000       0.75000000       0.25000000 </v>
    <v>       0.25000000       0.75000000       0.50000000 </v>
    <v>       0.25000000       0.75000000       0.75000000 </v>
    <v>       0.50000000       0.00000000       0.00000000 </v>
    <v>       0.50000000       0.00000000       0.25000000 </v>
    <v>       0.50000000       0.00000000       0.50000000 </v>
    <v>       0.50000000       0.00000000       0.75000000 </v>
    <v>       0.50000000       0.25000000       0.00000000 </v>
    <v>       0.50000000       0.25000000       0.25000000 </v>
    <v>       0.50000000       0.25000000       0.50000000 </v>
    <v>       0.50000000       0.25000000       0.75000000 </v>
    <v>       0.50000000       0.50000000       0.00000000 </v>
    <v>       0.50000000       0.50000000       0.25000000 </v>
    <v>       0.50000000       0.50000000       0.50000000 </v>
    <v>       0.50000000       0.50000000       0.75000000 </v>
    <v>       0.50000000       0.75000000       0.00000000 </v>
    <v>       0.50000000       0.75000000       0.25000000 </v>
    <v>       0.50000000       0.75000000       0.50000000 </v>
    <v>       0.50000000       0.75000000       0.75000000 </v>
    <v>       0.75000000       0.00000000       0.00000000 </v>
    <v>       0.75000000       0.00000000       0.25000000 </v>
    <v>       0.75000000       0.00000000       0.50000000 </v>
    <v>       0.75000000       0.00000000       0.75000000 </v>
    <v>       0.75000000       0.25000000       0.00000000 </v>
    <v>       0.75000000       0.25000000       0.25000000 </v>
    <v>       0.75000000       0.25000000       0.50000000 </v>
    <v>       0.75000000       0.25000000       0.75000000 </v>
    <v>       0.75000000       0.50000000       0.00000000 </v>
    <v>       0.75000000       0.50000000       0.25000000 </v>
    <v>       0.75000000       0.50000000       0.50000000 </v>
    <v>       0.75000000       0.50000000       0.75000000 </v>
    <v>       0.75000000       0.75000000       0.00000000 </v>
    <v>       0.75000000       0.75000000       0.25000000 </v>
    <v>       0.75000000       0.75000000       0.50000000 </v>
    <v>       0.75000000       0.75000000       0.75000000 </v>
   </varray>
  </structure>
  <varray name="forces" >
   <v>       0.19671220       0.00000000       0.00000000 </v>
   <v>      -0.02335418      -0.02733017       0.00000000 </v>
   <v>       0.00000113       0.00024300      -0.00000000 </v>
   <v>      -0.02418821      -0.02852404       0.00000000 </v>
   <v>      -0.02335418       0.00000000      -0.02733017 </v>
[...]
       <r>    25.2612     0.0000   646.0000 </r>
       <r>    25.5504     0.0000   646.0000 </r>
       <r>    25.8396     0.0000   646.0000 </r>
       <r>    26.1287     0.0000   646.0000 </r>
       <r>    26.4179     0.0000   646.0000 </r>
       <r>    26.7071     0.0000   646.0000 </r>
       <r>    26.9962     0.0000   646.0000 </r>
       <r>    27.2854     0.0000   646.0000 </r>
       <r>    27.5746     0.0000   646.0000 </r>
      </set>
      <set comment="spin 2">
       <r>   -59.1762     0.0000     0.0000 </r>
       <r>   -58.8870     0.0000     0.0000 </r>
       <r>   -58.5979     0.0000     0.0000 </r>
       <r>   -58.3087     0.0000     0.0000 </r>
       <r>   -58.0195     0.0000     0.0000 </r>
       <r>   -57.7303     0.0000     0.0000 </r>
       <r>   -57.4412     0.0000     0.0000 </r>
       <r>   -57.1520     0.0000     0.0000 </r>
       <r>   -56.8628     0.0000     0.0000 </r>
       <r>   -56.5737     0.0000     0.0000 </r>
       <r>   -56.2845    -0.0000    -0.0000 </r>
       <r>   -55.9953    -0.0000    -0.0000 </r>
       <r>   -55.7062    -0.0000    -0.0000 </r>
       <r>   -55.4170    -0.0000    -0.0000 </r>
       <r>   -55.1278    -0.0004    -0.0001 </r>
       <r>   -54.8387    -0.8511    -0.2462 </r>
       <r>   -54.5495    -6.1430    -2.0226 </r>
       <r>   -54.2603   383.9692   109.0095 </r>
       <r>   -53.9711   302.3564   196.4417 </r>
       <r>   -53.6820   -15.1518   192.0602 </r>
       <r>   -53.3928    -0.2082   192.0000 </r>
       <r>   -53.1036    -0.0000   192.0000 </r>
       <r>   -52.8145    -0.0000   192.0000 </r>
       <r>   -52.5253     0.0000   192.0000 </r>
       <r>   -52.2361     0.0000   192.0000 </r>
       <r>   -51.9470     0.0000   192.0000 </r>
       <r>   -51.6578     0.0000   192.0000 </r>
       <r>   -51.3686     0.0000   192.0000 </r>
       <r>   -51.0795     0.0000   192.0000 </r>
       <r>   -50.7903     0.0000   192.0000 </r>
       <r>   -50.5011     0.0000   192.0000 </r>
       <r>   -50.2119     0.0000   192.0000 </r>
       <r>   -49.9228     0.0000   192.0000 </r>
       <r>   -49.6336     0.0000   192.0000 </r>
       <r>   -49.3444     0.0000   192.0000 </r>
       <r>   -49.0553     0.0000   192.0000 </r>
       <r>   -48.7661     0.0000   192.0000 </r>
       <r>   -48.4769     0.0000   192.0000 </r>
       <r>   -48.1878     0.0000   192.0000 </r>
       <r>   -47.8986     0.0000   192.0000 </r>
       <r>   -47.6094     0.0000   192.0000 </r>
       <r>   -47.3203     0.0000   192.0000 </r>
       <r>   -47.0311     0.0000   192.0000 </r>
       <r>   -46.7419     0.0000   192.0000 </r>
       <r>   -46.4527     0.0000   192.0000 </r>
       <r>   -46.1636     0.0000   192.0000 </r>
       <r>   -45.8744     0.0000   192.0000 </r>
       <r>   -45.5852     0.0000   192.0000 </r>
       <r>   -45.2961     0.0000   192.0000 </r>
       <r>   -45.0069     0.0000   192.0000 </r>
       <r>   -44.7177     0.0000   192.0000 </r>
       <r>   -44.4286     0.0000   192.0000 </r>
       <r>   -44.1394     0.0000   192.0000 </r>
       <r>   -43.8502     0.0000   192.0000 </r>
       <r>   -43.5611     0.0000   192.0000 </r>
       <r>   -43.2719     0.0000   192.0000 </r>
       <r>   -42.9827     0.0000   192.0000 </r>
       <r>   -42.6935     0.0000   192.0000 </r>
       <r>   -42.4044     0.0000   192.0000 </r>
       <r>   -42.1152     0.0000   192.0000 </r>
       <r>   -41.8260     0.0000   192.0000 </r>
       <r>   -41.5369     0.0000   192.0000 </r>
       <r>   -41.2477     0.0000   192.0000 </r>
       <r>   -40.9585     0.0000   192.0000 </r>
       <r>   -40.6694     0.0000   192.0000 </r>
       <r>   -40.3802     0.0000   192.0000 </r>
       <r>   -40.0910     0.0000   192.0000 </r>
       <r>   -39.8019     0.0000   192.0000 </r>
       <r>   -39.5127     0.0000   192.0000 </r>
       <r>   -39.2235     0.0000   192.0000 </r>
       <r>   -38.9343     0.0000   192.0000 </r>
       <r>   -38.6452     0.0000   192.0000 </r>
       <r>   -38.3560     0.0000   192.0000 </r>
       <r>   -38.0668     0.0000   192.0000 </r>
       <r>   -37.7777     0.0000   192.0000 </r>
       <r>   -37.4885     0.0000   192.0000 </r>
       <r>   -37.1993     0.0000   192.0000 </r>
       <r>   -36.9102     0.0000   192.0000 </r>
       <r>   -36.6210     0.0000   192.0000 </r>
       <r>   -36.3318     0.0000   192.0000 </r>
       <r>   -36.0427     0.0000   192.0000 </r>
       <r>   -35.7535     0.0000   192.0000 </r>
       <r>   -35.4643     0.0000   192.0000 </r>
       <r>   -35.1751     0.0000   192.0000 </r>
       <r>   -34.8860     0.0000   192.0000 </r>
       <r>   -34.5968     0.0000   192.0000 </r>
       <r>   -34.3076     0.0000   192.0000 </r>
       <r>   -34.0185     0.0000   192.0000 </r>
       <r>   -33.7293     0.0000   192.0000 </r>
       <r>   -33.4401     0.0000   192.0000 </r>
       <r>   -33.1510     0.0000   192.0000 </r>
       <r>   -32.8618     0.0000   192.0000 </r>
       <r>   -32.5726     0.0000   192.0000 </r>
       <r>   -32.2835     0.0000   192.0000 </r>
       <r>   -31.9943     0.0000   192.0000 </r>
       <r>   -31.7051     0.0000   192.0000 </r>
       <r>   -31.4159     0.0000   192.0000 </r>
       <r>   -31.1268     0.0000   192.0000 </r>
       <r>   -30.8376     0.0000   192.0000 </r>
       <r>   -30.5484     0.0000   192.0000 </r>
       <r>   -30.2593     0.0000   192.0000 </r>
       <r>   -29.9701     0.0000   192.0000 </r>
       <r>   -29.6809     0.0000   192.0000 </r>
       <r>   -29.3918     0.0000   192.0000 </r>
       <r>   -29.1026     0.0000   192.0000 </r>
       <r>   -28.8134     0.0000   192.0000 </r>
       <r>   -28.5243     0.0000   192.0000 </r>
       <r>   -28.2351     0.0000   192.0000 </r>
       <r>   -27.9459     0.0000   192.0000 </r>
       <r>   -27.6567     0.0000   192.0000 </r>
       <r>   -27.3676     0.0000   192.0000 </r>
       <r>   -27.0784     0.0000   192.0000 </r>
       <r>   -26.7892     0.0000   192.0000 </r>
       <r>   -26.5001     0.0000   192.0000 </r>
       <r>   -26.2109     0.0000   192.0000 </r>
       <r>   -25.9217     0.0000   192.0000 </r>
       <r>   -25.6326     0.0000   192.0000 </r>
       <r>   -25.3434     0.0000   192.0000 </r>
       <r>   -25.0542     0.0000   192.0000 </r>
       <r>   -24.7651     0.0000   192.0000 </r>
       <r>   -24.4759     0.0000   192.0000 </r>
       <r>   -24.1867     0.0000   192.0000 </r>
       <r>   -23.8975     0.0000   192.0000 </r>
       <r>   -23.6084     0.0000   192.0000 </r>
       <r>   -23.3192     0.0000   192.0000 </r>
       <r>   -23.0300     0.0000   192.0000 </r>
       <r>   -22.7409     0.0000   192.0000 </r>
       <r>   -22.4517     0.0000   192.0000 </r>
       <r>   -22.1625     0.0000   192.0000 </r>
       <r>   -21.8734     0.0000   192.0000 </r>
       <r>   -21.5842     0.0000   192.0000 </r>
       <r>   -21.2950     0.0000   192.0000 </r>
       <r>   -21.0059     0.0000   192.0000 </r>
       <r>   -20.7167     0.0000   192.0000 </r>
       <r>   -20.4275     0.0000   192.0000 </r>
       <r>   -20.1383     0.0000   192.0000 </r>
       <r>   -19.8492     0.0000   192.0000 </r>
       <r>   -19.5600     0.0000   192.0000 </r>
       <r>   -19.2708     0.0000   192.0000 </r>
       <r>   -18.9817     0.0000   192.0000 </r>
       <r>   -18.6925     0.0000   192.0000 </r>
       <r>   -18.4033     0.0000   192.0000 </r>
       <r>   -18.1142     0.0000   192.0000 </r>
       <r>   -17.8250     0.0000   192.0000 </r>
       <r>   -17.5358     0.0000   192.0000 </r>
       <r>   -17.2467     0.0000   192.0000 </r>
       <r>   -16.9575     0.0000   192.0000 </r>
       <r>   -16.6683     0.0000   192.0000 </r>
       <r>   -16.3792     0.0000   192.0000 </r>
       <r>   -16.0900     0.0000   192.0000 </r>
       <r>   -15.8008     0.0000   192.0000 </r>
       <r>   -15.5116     0.0000   192.0000 </r>
       <r>   -15.2225     0.0000   192.0000 </r>
       <r>   -14.9333     0.0000   192.0000 </r>
       <r>   -14.6441     0.0000   192.0000 </r>
       <r>   -14.3550     0.0000   192.0000 </r>
       <r>   -14.0658     0.0000   192.0000 </r>
       <r>   -13.7766     0.0000   192.0000 </r>
       <r>   -13.4875     0.0000   192.0000 </r>
       <r>   -13.1983     0.0000   192.0000 </r>
       <r>   -12.9091     0.0000   192.0000 </r>
       <r>   -12.6200     0.0000   192.0000 </r>
       <r>   -12.3308     0.0000   192.0000 </r>
       <r>   -12.0416     0.0000   192.0000 </r>
       <r>   -11.7524     0.0000   192.0000 </r>
       <r>   -11.4633     0.0000   192.0000 </r>
       <r>   -11.1741     0.0000   192.0000 </r>
       <r>   -10.8849     0.0000   192.0000 </r>
       <r>   -10.5958     0.0000   192.0000 </r>
       <r>   -10.3066     0.0000   192.0000 </r>
       <r>   -10.0174     0.0000   192.0000 </r>
       <r>    -9.7283     0.0000   192.0000 </r>
       <r>    -9.4391     0.0000   192.0000 </r>
       <r>    -9.1499     0.0000   192.0000 </r>
       <r>    -8.8608     0.0000   192.0000 </r>
       <r>    -8.5716     0.0000   192.0000 </r>
       <r>    -8.2824     0.0000   192.0000 </r>
       <r>    -7.9932     0.0000   192.0000 </r>
       <r>    -7.7041     0.0000   192.0000 </r>
       <r>    -7.4149     0.0000   192.0000 </r>
       <r>    -7.1257     0.0000   192.0000 </r>
       <r>    -6.8366     0.0000   192.0000 </r>
       <r>    -6.5474     0.0000   192.0000 </r>
       <r>    -6.2582     0.0000   192.0000 </r>
       <r>    -5.9691     0.0000   192.0000 </r>
       <r>    -5.6799     0.0000   192.0000 </r>
       <r>    -5.3907     0.0000   192.0000 </r>
       <r>    -5.1016     0.0000   192.0000 </r>
       <r>    -4.8124     0.0000   192.0000 </r>
       <r>    -4.5232     0.0000   192.0000 </r>
       <r>    -4.2340     0.0000   192.0000 </r>
       <r>    -3.9449     0.0000   192.0000 </r>
       <r>    -3.6557     0.0000   192.0000 </r>
       <r>    -3.3665     0.0000   192.0000 </r>
       <r>    -3.0774     0.0000   192.0000 </r>
       <r>    -2.7882     0.0000   192.0000 </r>
       <r>    -2.4990    -0.0000   192.0000 </r>
       <r>    -2.2099    -0.0000   192.0000 </r>
       <r>    -1.9207    -0.0000   192.0000 </r>
       <r>    -1.6315    -0.0000   192.0000 </r>
       <r>    -1.3424    -0.0000   192.0000 </r>
       <r>    -1.0532    -0.0024   191.9993 </r>
       <r>    -0.7640     0.0178   192.0045 </r>
       <r>    -0.4748     0.4407   192.1319 </r>
       <r>    -0.1857     1.4180   192.5419 </r>
       <r>     0.1035     1.0401   192.8427 </r>
       <r>     0.3927     3.3587   193.8139 </r>
       <r>     0.6818     1.4195   194.2244 </r>
       <r>     0.9710     1.4718   194.6500 </r>
       <r>     1.2602     5.1945   196.1521 </r>
       <r>     1.5493     2.9269   196.9985 </r>
       <r>     1.8385     4.1824   198.2079 </r>
       <r>     2.1277     0.7993   198.4390 </r>
       <r>     2.4168     8.7758   200.9767 </r>
       <r>     2.7060     4.4932   202.2760 </r>
       <r>     2.9952     6.4816   204.1502 </r>
       <r>     3.2844     2.8736   204.9812 </r>
       <r>     3.5735    10.5800   208.0406 </r>
       <r>     3.8627    14.2871   212.1720 </r>
       <r>     4.1519    15.7280   216.7200 </r>
       <r>     4.4410    24.1220   223.6954 </r>
       <r>     4.7302    39.6162   235.1512 </r>
       <r>     5.0194    28.0535   243.2634 </r>
       <r>     5.3085    51.3503   258.1123 </r>
       <r>     5.5977    51.9292   273.1286 </r>
       <r>     5.8869    43.9643   285.8418 </r>
       <r>     6.1760    46.5726   299.3091 </r>
       <r>     6.4652    58.8131   316.3161 </r>
       <r>     6.7544    66.2354   335.4693 </r>
       <r>     7.0436    77.6610   357.9265 </r>
       <r>     7.3327    85.2679   382.5833 </r>
       <r>     7.6219    61.5995   400.3960 </r>
       <r>     7.9111    56.1794   416.6413 </r>
       <r>     8.2002    82.2562   440.4273 </r>
       <r>     8.4894    53.2119   455.8146 </r>
       <r>     8.7786    75.2169   477.5650 </r>
       <r>     9.0677    83.0831   501.5901 </r>
       <r>     9.3569    81.7076   525.2174 </r>
       <r>     9.6461    24.6629   532.3491 </r>
       <r>     9.9352    15.6445   536.8730 </r>
       <r>    10.2244     6.3744   538.7163 </r>
       <r>    10.5136     5.0919   540.1887 </r>
       <r>    10.8028    12.5068   543.8053 </r>
       <r>    11.0919    11.4498   547.1163 </r>
       <r>    11.3811    12.0030   550.5872 </r>
       <r>    11.6703     4.2164   551.8064 </r>
       <r>    11.9594     7.4172   553.9513 </r>
       <r>    12.2486     8.4447   556.3932 </r>
       <r>    12.5378     7.0392   558.4287 </r>
       <r>    12.8269    12.3082   561.9879 </r>
       <r>    13.1161     2.3001   562.6530 </r>
       <r>    13.4053     9.0867   565.2806 </r>
       <r>    13.6944     8.7640   567.8149 </r>
       <r>    13.9836    -0.1783   567.7633 </r>
       <r>    14.2728     0.6760   567.9588 </r>
       <r>    14.5620    12.0564   571.4451 </r>
       <r>    14.8511     2.6071   572.1990 </r>
       <r>    15.1403     3.0528   573.0818 </r>
       <r>    15.4295     4.2611   574.3140 </r>
       <r>    15.7186     6.1569   576.0944 </r>
       <r>    16.0078     6.2817   577.9109 </r>
       <r>    16.2970     9.3292   580.6086 </r>
       <r>    16.5861     8.9250   583.1894 </r>
       <r>    16.8753     8.2249   585.5678 </r>
       <r>    17.1645    10.2272   588.5252 </r>
       <r>    17.4536     8.1106   590.8705 </r>
       <r>    17.7428     7.8527   593.1413 </r>
       <r>    18.0320    11.9431   596.5949 </r>
       <r>    18.3212     7.0639   598.6375 </r>
       <r>    18.6103     3.1420   599.5461 </r>
       <r>    18.8995     8.0700   601.8797 </r>
       <r>    19.1887     6.6397   603.7997 </r>
       <r>    19.4778     9.2930   606.4869 </r>
       <r>    19.7670     4.8379   607.8859 </r>
       <r>    20.0562    12.8538   611.6028 </r>
       <r>    20.3453     6.9605   613.6156 </r>
       <r>    20.6345    13.2713   617.4532 </r>
       <r>    20.9237    18.3043   622.7463 </r>
       <r>    21.2128     7.5585   624.9320 </r>
       <r>    21.5020    11.4817   628.2521 </r>
       <r>    21.7912    12.1395   631.7625 </r>
       <r>    22.0804    11.0573   634.9599 </r>
       <r>    22.3695     1.7773   635.4738 </r>
       <r>    22.6587    11.9832   638.9390 </r>
       <r>    22.9479    15.0611   643.2942 </r>
       <r>    23.2370     7.1027   645.3481 </r>
       <r>    23.5262     0.4536   645.4793 </r>
       <r>    23.8154     1.8649   646.0186 </r>
       <r>    24.1045    -0.0614   646.0008 </r>
       <r>    24.3937    -0.0028   646.0000 </r>
       <r>    24.6829    -0.0000   646.0000 </r>
       <r>    24.9720    -0.0000   646.0000 </r>
       <r>    25.2612     0.0000   646.0000 </r>
       <r>    25.5504     0.0000   646.0000 </r>
       <r>    25.8396     0.0000   646.0000 </r>
       <r>    26.1287     0.0000   646.0000 </r>
       <r>    26.4179     0.0000   646.0000 </r>
       <r>    26.7071     0.0000   646.0000 </r>
       <r>    26.9962     0.0000   646.0000 </r>
       <r>    27.2854     0.0000   646.0000 </r>
       <r>    27.5746     0.0000   646.0000 </r>
      </set>
     </set>
    </array>
   </total>
  </dos>
 </calculation>
 <structure name="finalpos" >
  <crystal>
   <varray name="basis" >
    <v>       0.00000000       6.83850000       6.83850000 </v>
    <v>       6.83850000       0.00000000       6.83850000 </v>
    <v>       6.83850000       6.83850000       0.00000000 </v>
   </varray>
   <i name="volume">    639.60602993 </i>
   <varray name="rec_basis" >
    <v>      -0.07311545       0.07311545       0.07311545 </v>
    <v>       0.07311545      -0.07311545       0.07311545 </v>
    <v>       0.07311545       0.07311545      -0.07311545 </v>
   </varray>
  </crystal>
  <varray name="positions" >
   <v>       0.00219346      -0.00219346      -0.00219346 </v>
   <v>       0.00000000       0.00000000       0.25000000 </v>
   <v>       0.00000000       0.00000000       0.50000000 </v>
   <v>       0.00000000       0.00000000       0.75000000 </v>
   <v>       0.00000000       0.25000000       0.00000000 </v>
   <v>       0.00000000       0.25000000       0.25000000 </v>
   <v>       0.00000000       0.25000000       0.50000000 </v>
   <v>       0.00000000       0.25000000       0.75000000 </v>
   <v>       0.00000000       0.50000000       0.00000000 </v>
   <v>       0.00000000       0.50000000       0.25000000 </v>
   <v>       0.00000000       0.50000000       0.50000000 </v>
   <v>       0.00000000       0.50000000       0.75000000 </v>
   <v>       0.00000000       0.75000000       0.00000000 </v>
   <v>       0.00000000       0.75000000       0.25000000 </v>
   <v>       0.00000000       0.75000000       0.50000000 </v>
   <v>       0.00000000       0.75000000       0.75000000 </v>
   <v>       0.25000000       0.00000000       0.00000000 </v>
   <v>       0.25000000       0.00000000       0.25000000 </v>
   <v>       0.25000000       0.00000000       0.50000000 </v>
   <v>       0.25000000       0.00000000       0.75000000 </v>
   <v>       0.25000000       0.25000000       0.00000000 </v>
   <v>       0.25000000       0.25000000       0.25000000 </v>
   <v>       0.25000000       0.25000000       0.50000000 </v>
   <v>       0.25000000       0.25000000       0.75000000 </v>
   <v>       0.25000000       0.50000000       0.00000000 </v>
   <v>       0.25000000       0.50000000       0.25000000 </v>
   <v>       0.25000000       0.50000000       0.50000000 </v>
   <v>       0.25000000       0.50000000       0.75000000 </v>
   <v>       0.25000000       0.75000000       0.00000000 </v>
   <v>       0.25000000       0.75000000       0.25000000 </v>
   <v>       0.25000000       0.75000000       0.50000000 </v>
   <v>       0.25000000       0.75000000       0.75000000 </v>
   <v>       0.50000000       0.00000000       0.00000000 </v>
   <v>       0.50000000       0.00000000       0.25000000 </v>
   <v>       0.50000000       0.00000000       0.50000000 </v>
   <v>       0.50000000       0.00000000       0.75000000 </v>
   <v>       0.50000000       0.25000000       0.00000000 </v>
   <v>       0.50000000       0.25000000       0.25000000 </v>
   <v>       0.50000000       0.25000000       0.50000000 </v>
   <v>       0.50000000       0.25000000       0.75000000 </v>
   <v>       0.50000000       0.50000000       0.00000000 </v>
   <v>       0.50000000       0.50000000       0.25000000 </v>
   <v>       0.50000000       0.50000000       0.50000000 </v>
   <v>       0.50000000       0.50000000       0.75000000 </v>
   <v>       0.50000000       0.75000000       0.00000000 </v>
   <v>       0.50000000       0.75000000       0.25000000 </v>
   <v>       0.50000000       0.75000000       0.50000000 </v>
   <v>       0.50000000       0.75000000       0.75000000 </v>
   <v>       0.75000000       0.00000000       0.00000000 </v>
   <v>       0.75000000       0.00000000       0.25000000 </v>
   <v>       0.75000000       0.00000000       0.50000000 </v>
   <v>       0.75000000       0.00000000       0.75000000 </v>
   <v>       0.75000000       0.25000000       0.00000000 </v>
   <v>       0.75000000       0.25000000       0.25000000 </v>
   <v>       0.75000000       0.25000000       0.50000000 </v>
   <v>       0.75000000       0.25000000       0.75000000 </v>
   <v>       0.75000000       0.50000000       0.00000000 </v>
   <v>       0.75000000       0.50000000       0.25000000 </v>
   <v>       0.75000000       0.50000000       0.50000000 </v>
   <v>       0.75000000       0.50000000       0.75000000 </v>
   <v>       0.75000000       0.75000000       0.00000000 </v>
   <v>       0.75000000       0.75000000       0.25000000 </v>
   <v>       0.75000000       0.75000000       0.50000000 </v>
   <v>       0.75000000       0.75000000       0.75000000 </v>
  </varray>
 </structure>
</modeling>
