       N       E                     dE             d eps       ncg     rms          rms(c)
DAV:   1     0.161066749612E+05    0.16107E+05   -0.59248E+05 11560   0.225E+03
DAV:   2     0.119369056417E+04   -0.14913E+05   -0.14465E+05 10368   0.724E+02
DAV:   3    -0.343542464521E+03   -0.15372E+04   -0.12905E+04 10488   0.249E+02
DAV:   4    -0.430754184907E+03   -0.87212E+02   -0.84693E+02 11064   0.622E+01
DAV:   5    -0.432196309549E+03   -0.14421E+01   -0.14403E+01 11056   0.783E+00    0.673E+01
DAV:   6    -0.393585868053E+03    0.38610E+02   -0.55887E+02 10896   0.728E+01    0.447E+01
DAV:   7    -0.369517430043E+03    0.24068E+02   -0.10077E+02 10856   0.314E+01    0.601E+00
DAV:   8    -0.369406656258E+03    0.11077E+00   -0.11028E+00 11072   0.235E+00    0.277E+00
DAV:   9    -0.369287113273E+03    0.11954E+00   -0.15216E-01 12104   0.752E-01    0.706E-01
DAV:  10    -0.369290830504E+03   -0.37172E-02   -0.10910E-02 11336   0.203E-01    0.254E-01
DAV:  11    -0.369292957545E+03   -0.21270E-02   -0.34137E-03 11128   0.137E-01    0.873E-02
DAV:  12    -0.369293009567E+03   -0.52022E-04   -0.40543E-04 10912   0.471E-02    0.277E-02
DAV:  13    -0.369293015073E+03   -0.55057E-05   -0.21004E-05 10288   0.102E-02    0.201E-02
DAV:  14    -0.369292990864E+03    0.24208E-04   -0.96229E-06  9184   0.904E-03    0.485E-03
DAV:  15    -0.369292986054E+03    0.48105E-05   -0.89173E-07  5472   0.284E-03    0.123E-03
DAV:  16    -0.369292986255E+03   -0.20169E-06   -0.15237E-07  5464   0.115E-03
   1 F= -.36929299E+03 E0= -.36923288E+03  d E =-.180305E+00  mag=    42.0734
 Found     1 degrees of freedom:
       N       E                     dE             d eps       ncg     rms          rms(c)
DAV:   1    -0.369196954805E+03    0.96031E-01   -0.22364E+00 20680   0.150E+01    0.548E-01
DAV:   2    -0.369291653087E+03   -0.94698E-01   -0.93497E-01 16240   0.164E+00    0.959E-01
DAV:   3    -0.369295332990E+03   -0.36799E-02   -0.38114E-02 19664   0.105E+00    0.114E+00
DAV:   4    -0.369293180115E+03    0.21529E-02   -0.72754E-03 18504   0.621E-01    0.652E-01
DAV:   5    -0.369292054654E+03    0.11255E-02   -0.12409E-03 17504   0.322E-01    0.180E-01
DAV:   6    -0.369292038977E+03    0.15677E-04   -0.30689E-04 20200   0.861E-02    0.165E-01
DAV:   7    -0.369291966227E+03    0.72749E-04   -0.68052E-05 17424   0.640E-02    0.136E-01
DAV:   8    -0.369291946679E+03    0.19548E-04   -0.80078E-05 17944   0.847E-02    0.153E-01
DAV:   9    -0.369291878301E+03    0.68378E-04   -0.14266E-04 19312   0.115E-01    0.137E-01
DAV:  10    -0.369291816042E+03    0.62260E-04   -0.94564E-05 21680   0.802E-02    0.261E-02
DAV:  11    -0.369291821595E+03   -0.55537E-05   -0.26476E-05 21808   0.310E-02    0.471E-02
DAV:  12    -0.369291816900E+03    0.46956E-05   -0.11281E-05 16768   0.259E-02    0.188E-02
DAV:  13    -0.369291816183E+03    0.71680E-06   -0.26237E-06 10176   0.128E-02
   2 F= -.36929182E+03 E0= -.36923173E+03  d E =-.180249E+00  mag=    42.0735
       N       E                     dE             d eps       ncg     rms          rms(c)
DAV:   1    -0.368946053949E+03    0.34576E+00   -0.78989E+00 20648   0.275E+01    0.105E+00
DAV:   2    -0.369301683603E+03   -0.35563E+00   -0.33924E+00 16392   0.299E+00    0.276E+00
DAV:   3    -0.369297618907E+03    0.40647E-02   -0.17413E-01 19136   0.187E+00    0.145E+00
DAV:   4    -0.369301084208E+03   -0.34653E-02   -0.25145E-02 19416   0.121E+00    0.176E+00
DAV:   5    -0.369292730892E+03    0.83533E-02   -0.80580E-03 16904   0.857E-01    0.402E-01
DAV:   6    -0.369292562042E+03    0.16885E-03   -0.13534E-03 19512   0.203E-01    0.299E-01
DAV:   7    -0.369292351740E+03    0.21030E-03   -0.34876E-04 17608   0.133E-01    0.272E-01
DAV:   8    -0.369292184633E+03    0.16711E-03   -0.30589E-04 17728   0.154E-01    0.247E-01
DAV:   9    -0.369292227514E+03   -0.42881E-04   -0.53195E-04 17648   0.216E-01    0.344E-01
DAV:  10    -0.369291871016E+03    0.35650E-03   -0.51495E-04 20592   0.199E-01    0.156E-01
DAV:  11    -0.369291815974E+03    0.55042E-04   -0.16775E-04 20640   0.854E-02    0.408E-02
DAV:  12    -0.369291825353E+03   -0.93789E-05   -0.42257E-05 22040   0.437E-02    0.561E-02
DAV:  13    -0.369291816300E+03    0.90523E-05   -0.20115E-05 16808   0.381E-02    0.153E-02
DAV:  14    -0.369291819818E+03   -0.35173E-05   -0.51284E-06 14744   0.216E-02    0.373E-02
DAV:  15    -0.369291816223E+03    0.35947E-05   -0.34547E-06 11576   0.193E-02    0.782E-03
DAV:  16    -0.369291816698E+03   -0.47451E-06   -0.11682E-06  8264   0.902E-03
   3 F= -.36929182E+03 E0= -.36923173E+03  d E =-.180250E+00  mag=    42.0736
