 vasp.5.4.1 05Feb16 (build Oct 12 2016 17:31:35) complex                        
  
 executed on           IFC91_ompi date 2020.09.07  22:42:50
 running on    4 total cores
 distrk:  each k-point on    4 cores,    1 groups
 distr:  one band on NCORES_PER_BAND=   1 cores,    4 groups


--------------------------------------------------------------------------------------------------------


 INCAR:
 POTCAR:   PAW_PBE Ni_pv 06Sep2000                
 POTCAR:   PAW_PBE Ni_pv 06Sep2000                
  local pseudopotential read in
  partial core-charges read in
  atomic valenz-charges read in
  non local Contribution for L=           1  read in
    real space projection operators read in
  non local Contribution for L=           1  read in
    real space projection operators read in
  non local Contribution for L=           2  read in
    real space projection operators read in
  non local Contribution for L=           2  read in
    real space projection operators read in
  non local Contribution for L=           0  read in
    real space projection operators read in
  non local Contribution for L=           0  read in
    real space projection operators read in
    PAW grid and wavefunctions read in
 
   number of l-projection  operators is LMAX  =           6
   number of lm-projection operators is LMMAX =          18
 
 Optimization of the real space projectors (new method)

 maximal supplied QI-value         = 18.90
 optimisation between [QCUT,QGAM] = [ 10.96, 27.40] = [ 33.64,210.25] Ry 
 Optimized for a Real-space Cutoff    1.19 Angstroem

   l    n(q)    QCUT    max X(q) W(low)/X(q) W(high)/X(q)  e(spline) 
   1      9    10.960     3.231    0.64E-06    0.38E-05    0.29E-07
   1      9    10.960     4.241    0.27E-04    0.99E-05    0.15E-06
   2      9    10.960     3.566    0.37E-04    0.13E-04    0.55E-07
   2      9    10.960    20.429    0.20E-03    0.15E-04    0.28E-06
   0     10    10.960    19.799    0.13E-04    0.31E-05    0.11E-07
   0     10    10.960    52.283    0.57E-04    0.26E-04    0.65E-07
 PAW_PBE Ni_pv 06Sep2000                :
 energy of atom  1       EATOM=-3500.3496
 kinetic energy error for atom=    0.0894 (will be added to EATOM!!)
 
 
 POSCAR: Supercell by Yi Wang                    
  positions in direct lattice
  No initial velocities read in
 exchange correlation table for  LEXCH =        8
   RHO(1)=    0.500       N(1)  =     2000
   RHO(2)=  100.500       N(2)  =     4000
 


--------------------------------------------------------------------------------------------------------


 ion  position               nearest neighbor table
   1  0.000  0.000  0.000-   2 2.46   4 2.46   5 2.46   8 2.46  13 2.46  14 2.46  17 2.46  20 2.46
                            29 2.46  49 2.46  50 2.46  53 2.46
   2  0.000  0.000  0.250-   1 2.46   3 2.46   5 2.46   6 2.46  14 2.46  15 2.46  17 2.46  18 2.46
                            30 2.46  50 2.46  51 2.46  54 2.46
   3  0.000  0.000  0.500-   2 2.46   4 2.46   6 2.46   7 2.46  15 2.46  16 2.46  18 2.46  19 2.46
                            31 2.46  51 2.46  52 2.46  55 2.46
   4  0.000  0.000  0.750-   1 2.46   3 2.46   7 2.46   8 2.46  13 2.46  16 2.46  19 2.46  20 2.46
                            32 2.46  49 2.46  52 2.46  56 2.46
   5  0.000  0.250  0.000-   1 2.46   2 2.46   6 2.46   8 2.46   9 2.46  12 2.46  17 2.46  21 2.46
                            24 2.46  53 2.46  54 2.46  57 2.46
   6  0.000  0.250  0.250-   2 2.46   3 2.46   5 2.46   7 2.46   9 2.46  10 2.46  18 2.46  21 2.46
                            22 2.46  54 2.46  55 2.46  58 2.46
   7  0.000  0.250  0.500-   3 2.46   4 2.46   6 2.46   8 2.46  10 2.46  11 2.46  19 2.46  22 2.46
                            23 2.46  55 2.46  56 2.46  59 2.46
   8  0.000  0.250  0.750-   1 2.46   4 2.46   5 2.46   7 2.46  11 2.46  12 2.46  20 2.46  23 2.46
                            24 2.46  53 2.46  56 2.46  60 2.46
   9  0.000  0.500  0.000-   5 2.46   6 2.46  10 2.46  12 2.46  13 2.46  16 2.46  21 2.46  25 2.46
                            28 2.46  57 2.46  58 2.46  61 2.46
  10  0.000  0.500  0.250-   6 2.46   7 2.46   9 2.46  11 2.46  13 2.46  14 2.46  22 2.46  25 2.46
                            26 2.46  58 2.46  59 2.46  62 2.46
  11  0.000  0.500  0.500-   7 2.46   8 2.46  10 2.46  12 2.46  14 2.46  15 2.46  23 2.46  26 2.46
                            27 2.46  59 2.46  60 2.46  63 2.46
  12  0.000  0.500  0.750-   5 2.46   8 2.46   9 2.46  11 2.46  15 2.46  16 2.46  24 2.46  27 2.46
                            28 2.46  57 2.46  60 2.46  64 2.46
  13  0.000  0.750  0.000-   1 2.46   4 2.46   9 2.46  10 2.46  14 2.46  16 2.46  25 2.46  29 2.46
                            32 2.46  49 2.46  61 2.46  62 2.46
  14  0.000  0.750  0.250-   1 2.46   2 2.46  10 2.46  11 2.46  13 2.46  15 2.46  26 2.46  29 2.46
                            30 2.46  50 2.46  62 2.46  63 2.46
  15  0.000  0.750  0.500-   2 2.46   3 2.46  11 2.46  12 2.46  14 2.46  16 2.46  27 2.46  30 2.46
                            31 2.46  51 2.46  63 2.46  64 2.46
  16  0.000  0.750  0.750-   3 2.46   4 2.46   9 2.46  12 2.46  13 2.46  15 2.46  28 2.46  31 2.46
                            32 2.46  52 2.46  61 2.46  64 2.46
  17  0.250  0.000  0.000-   1 2.46   2 2.46   5 2.46  18 2.46  20 2.46  21 2.46  24 2.46  29 2.46
                            30 2.46  33 2.46  36 2.46  45 2.46
  18  0.250  0.000  0.250-   2 2.46   3 2.46   6 2.46  17 2.46  19 2.46  21 2.46  22 2.46  30 2.46
                            31 2.46  33 2.46  34 2.46  46 2.46
  19  0.250  0.000  0.500-   3 2.46   4 2.46   7 2.46  18 2.46  20 2.46  22 2.46  23 2.46  31 2.46
                            32 2.46  34 2.46  35 2.46  47 2.46
  20  0.250  0.000  0.750-   1 2.46   4 2.46   8 2.46  17 2.46  19 2.46  23 2.46  24 2.46  29 2.46
                            32 2.46  35 2.46  36 2.46  48 2.46
  21  0.250  0.250  0.000-   5 2.46   6 2.46   9 2.46  17 2.46  18 2.46  22 2.46  24 2.46  25 2.46
                            28 2.46  33 2.46  37 2.46  40 2.46
  22  0.250  0.250  0.250-   6 2.46   7 2.46  10 2.46  18 2.46  19 2.46  21 2.46  23 2.46  25 2.46
                            26 2.46  34 2.46  37 2.46  38 2.46
  23  0.250  0.250  0.500-   7 2.46   8 2.46  11 2.46  19 2.46  20 2.46  22 2.46  24 2.46  26 2.46
                            27 2.46  35 2.46  38 2.46  39 2.46
  24  0.250  0.250  0.750-   5 2.46   8 2.46  12 2.46  17 2.46  20 2.46  21 2.46  23 2.46  27 2.46
                            28 2.46  36 2.46  39 2.46  40 2.46
  25  0.250  0.500  0.000-   9 2.46  10 2.46  13 2.46  21 2.46  22 2.46  26 2.46  28 2.46  29 2.46
                            32 2.46  37 2.46  41 2.46  44 2.46
  26  0.250  0.500  0.250-  10 2.46  11 2.46  14 2.46  22 2.46  23 2.46  25 2.46  27 2.46  29 2.46
                            30 2.46  38 2.46  41 2.46  42 2.46
  27  0.250  0.500  0.500-  11 2.46  12 2.46  15 2.46  23 2.46  24 2.46  26 2.46  28 2.46  30 2.46
                            31 2.46  39 2.46  42 2.46  43 2.46
  28  0.250  0.500  0.750-   9 2.46  12 2.46  16 2.46  21 2.46  24 2.46  25 2.46  27 2.46  31 2.46
                            32 2.46  40 2.46  43 2.46  44 2.46
  29  0.250  0.750  0.000-   1 2.46  13 2.46  14 2.46  17 2.46  20 2.46  25 2.46  26 2.46  30 2.46
                            32 2.46  41 2.46  45 2.46  48 2.46
  30  0.250  0.750  0.250-   2 2.46  14 2.46  15 2.46  17 2.46  18 2.46  26 2.46  27 2.46  29 2.46
                            31 2.46  42 2.46  45 2.46  46 2.46
  31  0.250  0.750  0.500-   3 2.46  15 2.46  16 2.46  18 2.46  19 2.46  27 2.46  28 2.46  30 2.46
                            32 2.46  43 2.46  46 2.46  47 2.46
  32  0.250  0.750  0.750-   4 2.46  13 2.46  16 2.46  19 2.46  20 2.46  25 2.46  28 2.46  29 2.46
                            31 2.46  44 2.46  47 2.46  48 2.46
  33  0.500  0.000  0.000-  17 2.46  18 2.46  21 2.46  34 2.46  36 2.46  37 2.46  40 2.46  45 2.46
                            46 2.46  49 2.46  52 2.46  61 2.46
  34  0.500  0.000  0.250-  18 2.46  19 2.46  22 2.46  33 2.46  35 2.46  37 2.46  38 2.46  46 2.46
                            47 2.46  49 2.46  50 2.46  62 2.46
  35  0.500  0.000  0.500-  19 2.46  20 2.46  23 2.46  34 2.46  36 2.46  38 2.46  39 2.46  47 2.46
                            48 2.46  50 2.46  51 2.46  63 2.46
  36  0.500  0.000  0.750-  17 2.46  20 2.46  24 2.46  33 2.46  35 2.46  39 2.46  40 2.46  45 2.46
                            48 2.46  51 2.46  52 2.46  64 2.46
  37  0.500  0.250  0.000-  21 2.46  22 2.46  25 2.46  33 2.46  34 2.46  38 2.46  40 2.46  41 2.46
                            44 2.46  49 2.46  53 2.46  56 2.46
  38  0.500  0.250  0.250-  22 2.46  23 2.46  26 2.46  34 2.46  35 2.46  37 2.46  39 2.46  41 2.46
                            42 2.46  50 2.46  53 2.46  54 2.46
  39  0.500  0.250  0.500-  23 2.46  24 2.46  27 2.46  35 2.46  36 2.46  38 2.46  40 2.46  42 2.46
                            43 2.46  51 2.46  54 2.46  55 2.46
  40  0.500  0.250  0.750-  21 2.46  24 2.46  28 2.46  33 2.46  36 2.46  37 2.46  39 2.46  43 2.46
                            44 2.46  52 2.46  55 2.46  56 2.46
  41  0.500  0.500  0.000-  25 2.46  26 2.46  29 2.46  37 2.46  38 2.46  42 2.46  44 2.46  45 2.46
                            48 2.46  53 2.46  57 2.46  60 2.46
  42  0.500  0.500  0.250-  26 2.46  27 2.46  30 2.46  38 2.46  39 2.46  41 2.46  43 2.46  45 2.46
                            46 2.46  54 2.46  57 2.46  58 2.46
  43  0.500  0.500  0.500-  27 2.46  28 2.46  31 2.46  39 2.46  40 2.46  42 2.46  44 2.46  46 2.46
                            47 2.46  55 2.46  58 2.46  59 2.46
  44  0.500  0.500  0.750-  25 2.46  28 2.46  32 2.46  37 2.46  40 2.46  41 2.46  43 2.46  47 2.46
                            48 2.46  56 2.46  59 2.46  60 2.46
  45  0.500  0.750  0.000-  17 2.46  29 2.46  30 2.46  33 2.46  36 2.46  41 2.46  42 2.46  46 2.46
                            48 2.46  57 2.46  61 2.46  64 2.46
  46  0.500  0.750  0.250-  18 2.46  30 2.46  31 2.46  33 2.46  34 2.46  42 2.46  43 2.46  45 2.46
                            47 2.46  58 2.46  61 2.46  62 2.46
  47  0.500  0.750  0.500-  19 2.46  31 2.46  32 2.46  34 2.46  35 2.46  43 2.46  44 2.46  46 2.46
                            48 2.46  59 2.46  62 2.46  63 2.46
  48  0.500  0.750  0.750-  20 2.46  29 2.46  32 2.46  35 2.46  36 2.46  41 2.46  44 2.46  45 2.46
                            47 2.46  60 2.46  63 2.46  64 2.46
  49  0.750  0.000  0.000-   1 2.46   4 2.46  13 2.46  33 2.46  34 2.46  37 2.46  50 2.46  52 2.46
                            53 2.46  56 2.46  61 2.46  62 2.46
  50  0.750  0.000  0.250-   1 2.46   2 2.46  14 2.46  34 2.46  35 2.46  38 2.46  49 2.46  51 2.46
                            53 2.46  54 2.46  62 2.46  63 2.46
  51  0.750  0.000  0.500-   2 2.46   3 2.46  15 2.46  35 2.46  36 2.46  39 2.46  50 2.46  52 2.46
                            54 2.46  55 2.46  63 2.46  64 2.46
  52  0.750  0.000  0.750-   3 2.46   4 2.46  16 2.46  33 2.46  36 2.46  40 2.46  49 2.46  51 2.46
                            55 2.46  56 2.46  61 2.46  64 2.46
  53  0.750  0.250  0.000-   1 2.46   5 2.46   8 2.46  37 2.46  38 2.46  41 2.46  49 2.46  50 2.46
                            54 2.46  56 2.46  57 2.46  60 2.46
  54  0.750  0.250  0.250-   2 2.46   5 2.46   6 2.46  38 2.46  39 2.46  42 2.46  50 2.46  51 2.46
                            53 2.46  55 2.46  57 2.46  58 2.46
  55  0.750  0.250  0.500-   3 2.46   6 2.46   7 2.46  39 2.46  40 2.46  43 2.46  51 2.46  52 2.46
                            54 2.46  56 2.46  58 2.46  59 2.46
  56  0.750  0.250  0.750-   4 2.46   7 2.46   8 2.46  37 2.46  40 2.46  44 2.46  49 2.46  52 2.46
                            53 2.46  55 2.46  59 2.46  60 2.46
  57  0.750  0.500  0.000-   5 2.46   9 2.46  12 2.46  41 2.46  42 2.46  45 2.46  53 2.46  54 2.46
                            58 2.46  60 2.46  61 2.46  64 2.46
  58  0.750  0.500  0.250-   6 2.46   9 2.46  10 2.46  42 2.46  43 2.46  46 2.46  54 2.46  55 2.46
                            57 2.46  59 2.46  61 2.46  62 2.46
  59  0.750  0.500  0.500-   7 2.46  10 2.46  11 2.46  43 2.46  44 2.46  47 2.46  55 2.46  56 2.46
                            58 2.46  60 2.46  62 2.46  63 2.46
  60  0.750  0.500  0.750-   8 2.46  11 2.46  12 2.46  41 2.46  44 2.46  48 2.46  53 2.46  56 2.46
                            57 2.46  59 2.46  63 2.46  64 2.46
  61  0.750  0.750  0.000-   9 2.46  13 2.46  16 2.46  33 2.46  45 2.46  46 2.46  49 2.46  52 2.46
                            57 2.46  58 2.46  62 2.46  64 2.46
  62  0.750  0.750  0.250-  10 2.46  13 2.46  14 2.46  34 2.46  46 2.46  47 2.46  49 2.46  50 2.46
                            58 2.46  59 2.46  61 2.46  63 2.46
  63  0.750  0.750  0.500-  11 2.46  14 2.46  15 2.46  35 2.46  47 2.46  48 2.46  50 2.46  51 2.46
                            59 2.46  60 2.46  62 2.46  64 2.46
  64  0.750  0.750  0.750-  12 2.46  15 2.46  16 2.46  36 2.46  45 2.46  48 2.46  51 2.46  52 2.46
                            57 2.46  60 2.46  61 2.46  63 2.46
 
  LATTYP: Found a face centered cubic cell.
 ALAT       =    13.8885000000
  
  Lattice vectors:
  
 A1 = (   0.0000000000,   6.9442500000,   6.9442500000)
 A2 = (   6.9442500000,   0.0000000000,   6.9442500000)
 A3 = (   6.9442500000,   6.9442500000,   0.0000000000)


Analysis of symmetry for initial positions (statically):
=====================================================================
 Subroutine PRICEL returns following result:
 
  LATTYP: Found a face centered cubic cell.
 ALAT       =     3.4721250000
  
  Lattice vectors:
  
 A1 = (   0.0000000000,   1.7360625000,   1.7360625000)
 A2 = (   1.7360625000,   0.0000000000,   1.7360625000)
 A3 = (   1.7360625000,   1.7360625000,   0.0000000000)
 
  64 primitive cells build up your supercell.
 

 Routine SETGRP: Setting up the symmetry group for a 
 face centered cubic supercell.


 Subroutine GETGRP returns: Found 48 space group operations
 (whereof 48 operations were pure point group operations)
 out of a pool of 48 trial point group operations.


The static configuration has the point symmetry O_h .


Analysis of symmetry for dynamics (positions and initial velocities):
=====================================================================
 Subroutine PRICEL returns following result:
 
  LATTYP: Found a face centered cubic cell.
 ALAT       =     3.4721250000
  
  Lattice vectors:
  
 A1 = (   0.0000000000,   1.7360625000,   1.7360625000)
 A2 = (   1.7360625000,   0.0000000000,   1.7360625000)
 A3 = (   1.7360625000,   1.7360625000,   0.0000000000)
 
  64 primitive cells build up your supercell.
 

 Routine SETGRP: Setting up the symmetry group for a 
 face centered cubic supercell.


 Subroutine GETGRP returns: Found 48 space group operations
 (whereof 48 operations were pure point group operations)
 out of a pool of 48 trial point group operations.


The dynamic configuration has the point symmetry O_h .


Analysis of structural, dynamic, and magnetic symmetry:
=====================================================================
 Subroutine PRICEL returns following result:
 
  LATTYP: Found a face centered cubic cell.
 ALAT       =     3.4721250000
  
  Lattice vectors:
  
 A1 = (   0.0000000000,   1.7360625000,   1.7360625000)
 A2 = (   1.7360625000,   0.0000000000,   1.7360625000)
 A3 = (   1.7360625000,   1.7360625000,   0.0000000000)
 
  64 primitive cells build up your supercell.
 

 Routine SETGRP: Setting up the symmetry group for a 
 face centered cubic supercell.


 Subroutine GETGRP returns: Found 48 space group operations
 (whereof 48 operations were pure point group operations)
 out of a pool of 48 trial point group operations.


The magnetic configuration has the point symmetry O_h .


 Subroutine INISYM returns: Found 48 space group operations
 (whereof 48 operations are pure point group operations),
 and found    64 'primitive' translations

 
 
 KPOINTS: Zr 15x15x15                             

Automatic generation of k-mesh.
Space group operators:
 irot       det(A)        alpha          n_x          n_y          n_z        tau_x        tau_y        tau_z
    1     1.000000     0.000001     1.000000     0.000000     0.000000     0.000000     0.000000     0.000000
    2    -1.000000     0.000001     1.000000     0.000000     0.000000     0.000000     0.000000     0.000000
    3     1.000000   120.000000    -0.577350    -0.577350    -0.577350     0.000000     0.000000     0.000000
    4    -1.000000   120.000000    -0.577350    -0.577350    -0.577350     0.000000     0.000000     0.000000
    5     1.000000   120.000000     0.577350     0.577350     0.577350     0.000000     0.000000     0.000000
    6    -1.000000   120.000000     0.577350     0.577350     0.577350     0.000000     0.000000     0.000000
    7     1.000000    90.000000     0.000000     0.000000    -1.000000     0.000000     0.000000     0.000000
    8    -1.000000    90.000000     0.000000     0.000000    -1.000000     0.000000     0.000000     0.000000
    9     1.000000   180.000000     0.000000     0.707107     0.707107     0.000000     0.000000     0.000000
   10    -1.000000   180.000000     0.000000     0.707107     0.707107     0.000000     0.000000     0.000000
   11     1.000000    90.000000     0.000000     1.000000     0.000000     0.000000     0.000000     0.000000
   12    -1.000000    90.000000     0.000000     1.000000     0.000000     0.000000     0.000000     0.000000
   13     1.000000   180.000000     0.000000     0.000000     1.000000     0.000000     0.000000     0.000000
   14    -1.000000   180.000000     0.000000     0.000000     1.000000     0.000000     0.000000     0.000000
   15     1.000000   120.000000    -0.577350     0.577350     0.577350     0.000000     0.000000     0.000000
   16    -1.000000   120.000000    -0.577350     0.577350     0.577350     0.000000     0.000000     0.000000
   17     1.000000   120.000000    -0.577350     0.577350    -0.577350     0.000000     0.000000     0.000000
   18    -1.000000   120.000000    -0.577350     0.577350    -0.577350     0.000000     0.000000     0.000000
   19     1.000000    90.000000     0.000000     0.000000     1.000000     0.000000     0.000000     0.000000
   20    -1.000000    90.000000     0.000000     0.000000     1.000000     0.000000     0.000000     0.000000
   21     1.000000    90.000000    -1.000000     0.000000     0.000000     0.000000     0.000000     0.000000
   22    -1.000000    90.000000    -1.000000     0.000000     0.000000     0.000000     0.000000     0.000000
   23     1.000000   180.000000     0.707107     0.000000     0.707107     0.000000     0.000000     0.000000
   24    -1.000000   180.000000     0.707107     0.000000     0.707107     0.000000     0.000000     0.000000
   25     1.000000   120.000000     0.577350    -0.577350     0.577350     0.000000     0.000000     0.000000
   26    -1.000000   120.000000     0.577350    -0.577350     0.577350     0.000000     0.000000     0.000000
   27     1.000000   120.000000    -0.577350    -0.577350     0.577350     0.000000     0.000000     0.000000
   28    -1.000000   120.000000    -0.577350    -0.577350     0.577350     0.000000     0.000000     0.000000
   29     1.000000   180.000000     1.000000     0.000000     0.000000     0.000000     0.000000     0.000000
   30    -1.000000   180.000000     1.000000     0.000000     0.000000     0.000000     0.000000     0.000000
   31     1.000000    90.000000     0.000000    -1.000000     0.000000     0.000000     0.000000     0.000000
   32    -1.000000    90.000000     0.000000    -1.000000     0.000000     0.000000     0.000000     0.000000
   33     1.000000   180.000000     0.707107     0.707107     0.000000     0.000000     0.000000     0.000000
   34    -1.000000   180.000000     0.707107     0.707107     0.000000     0.000000     0.000000     0.000000
   35     1.000000    90.000000     1.000000     0.000000     0.000000     0.000000     0.000000     0.000000
   36    -1.000000    90.000000     1.000000     0.000000     0.000000     0.000000     0.000000     0.000000
   37     1.000000   120.000000     0.577350    -0.577350    -0.577350     0.000000     0.000000     0.000000
   38    -1.000000   120.000000     0.577350    -0.577350    -0.577350     0.000000     0.000000     0.000000
   39     1.000000   180.000000     0.000000     1.000000     0.000000     0.000000     0.000000     0.000000
   40    -1.000000   180.000000     0.000000     1.000000     0.000000     0.000000     0.000000     0.000000
   41     1.000000   120.000000     0.577350     0.577350    -0.577350     0.000000     0.000000     0.000000
   42    -1.000000   120.000000     0.577350     0.577350    -0.577350     0.000000     0.000000     0.000000
   43     1.000000   180.000000     0.000000    -0.707107     0.707107     0.000000     0.000000     0.000000
   44    -1.000000   180.000000     0.000000    -0.707107     0.707107     0.000000     0.000000     0.000000
   45     1.000000   180.000000     0.707107    -0.707107     0.000000     0.000000     0.000000     0.000000
   46    -1.000000   180.000000     0.707107    -0.707107     0.000000     0.000000     0.000000     0.000000
   47     1.000000   180.000000     0.707107     0.000000    -0.707107     0.000000     0.000000     0.000000
   48    -1.000000   180.000000     0.707107     0.000000    -0.707107     0.000000     0.000000     0.000000
 
 Subroutine IBZKPT returns following result:
 ===========================================
 
 Found      4 irreducible k-points:
 
 Following reciprocal coordinates:
            Coordinates               Weight
  0.000000  0.000000  0.000000      1.000000
  0.333333  0.000000  0.000000      8.000000
  0.333333  0.333333  0.000000      6.000000
 -0.333333  0.333333  0.000000     12.000000
 
 Following cartesian coordinates:
            Coordinates               Weight
  0.000000  0.000000  0.000000      1.000000
 -0.024001  0.024001  0.024001      8.000000
  0.000000  0.000000  0.048001      6.000000
  0.048001 -0.048001  0.000000     12.000000
 
 
 Subroutine IBZKPT_HF returns following result:
 ==============================================
 
 Found     27 k-points in 1st BZ
 the following     27 k-points will be used (e.g. in the exchange kernel)
 Following reciprocal coordinates:   # in IRBZ
  0.000000  0.000000  0.000000    0.03703704   1 t-inv F
  0.333333  0.000000  0.000000    0.03703704   2 t-inv F
  0.333333  0.333333  0.000000    0.03703704   3 t-inv F
 -0.333333  0.333333  0.000000    0.03703704   4 t-inv F
 -0.333333  0.000000  0.000000    0.03703704   2 t-inv F
  0.000000  0.333333  0.000000    0.03703704   2 t-inv F
  0.000000 -0.333333  0.000000    0.03703704   2 t-inv F
  0.000000  0.000000  0.333333    0.03703704   2 t-inv F
  0.000000  0.000000 -0.333333    0.03703704   2 t-inv F
  0.333333  0.333333  0.333333    0.03703704   2 t-inv F
 -0.333333 -0.333333 -0.333333    0.03703704   2 t-inv F
 -0.333333 -0.333333  0.000000    0.03703704   3 t-inv F
  0.000000  0.333333  0.333333    0.03703704   3 t-inv F
  0.000000 -0.333333 -0.333333    0.03703704   3 t-inv F
  0.333333  0.000000  0.333333    0.03703704   3 t-inv F
 -0.333333  0.000000 -0.333333    0.03703704   3 t-inv F
  0.333333 -0.333333  0.000000    0.03703704   4 t-inv F
  0.000000 -0.333333  0.333333    0.03703704   4 t-inv F
  0.000000  0.333333 -0.333333    0.03703704   4 t-inv F
  0.333333  0.000000 -0.333333    0.03703704   4 t-inv F
 -0.333333  0.000000  0.333333    0.03703704   4 t-inv F
  0.333333  0.333333  0.666667    0.03703704   4 t-inv F
 -0.333333 -0.333333 -0.666667    0.03703704   4 t-inv F
 -0.333333 -0.666667 -0.333333    0.03703704   4 t-inv F
  0.333333  0.666667  0.333333    0.03703704   4 t-inv F
 -0.666667 -0.333333 -0.333333    0.03703704   4 t-inv F
  0.666667  0.333333  0.333333    0.03703704   4 t-inv F


--------------------------------------------------------------------------------------------------------




 Dimension of arrays:
   k-points           NKPTS =      4   k-points in BZ     NKDIM =      4   number of bands    NBANDS=    648
   number of dos      NEDOS =    301   number of ions     NIONS =     64
   non local maximal  LDIM  =      6   non local SUM 2l+1 LMDIM =     18
   total plane-waves  NPLWV = 343000
   max r-space proj   IRMAX =   3701   max aug-charges    IRDMAX=   7319
   dimension x,y,z NGX =    70 NGY =   70 NGZ =   70
   dimension x,y,z NGXF=   120 NGYF=  120 NGZF=  120
   support grid    NGXF=   120 NGYF=  120 NGZF=  120
   ions per type =              64
 NGX,Y,Z   is equivalent  to a cutoff of  11.85, 11.85, 11.85 a.u.
 NGXF,Y,Z  is equivalent  to a cutoff of  20.31, 20.31, 20.31 a.u.


 I would recommend the setting:
   dimension x,y,z NGX =    69 NGY =   69 NGZ =   69
 SYSTEM =  phonon of Zr bcc - omiga                
 POSCAR =  Supercell by Yi Wang                    

 Startparameter for this run:
   NWRITE =      0    write-flag & timer
   PREC   = h         normal or accurate (medium, high low for compatibility)
   ISTART =      0    job   : 0-new  1-cont  2-samecut
   ICHARG =      2    charge: 1-file 2-atom 10-const
   ISPIN  =      2    spin polarized calculation?
   LNONCOLLINEAR =      F non collinear calculations
   LSORBIT =      F    spin-orbit coupling
   INIWAV =      1    electr: 0-lowe 1-rand  2-diag
   LASPH  =      F    aspherical Exc in radial PAW
   METAGGA=      F    non-selfconsistent MetaGGA calc.

 Electronic Relaxation 1
   ENCUT  =  459.9 eV  33.80 Ry    5.81 a.u.  17.17 17.17 17.17*2*pi/ulx,y,z
   ENINI  =  459.9     initial cutoff
   ENAUG  =  703.4 eV  augmentation charge cutoff
   NELM   =     60;   NELMIN=  2; NELMDL=  0     # of ELM steps 
   EDIFF  = 0.1E-05   stopping-criterion for ELM
   LREAL  =      T    real-space projection
   NLSPLINE    = F    spline interpolate recip. space projectors
   LCOMPAT=      F    compatible to vasp.4.4
   GGA_COMPAT  = T    GGA compatible to vasp.4.4-vasp.4.6
   LMAXPAW     = -100 max onsite density
   LMAXMIX     =    2 max onsite mixed and CHGCAR
   VOSKOWN=      0    Vosko Wilk Nusair interpolation
   ROPT   =   -0.00040
 Ionic relaxation
   EDIFFG = 0.1E-04   stopping-criterion for IOM
   NSW    =    805    number of steps for IOM
   NBLOCK =      1;   KBLOCK =      1    inner block; outer block 
   IBRION =      6    ionic relax: 0-MD 1-quasi-New 2-CG
   NFREE  =      2    steps in history (QN), initial steepest desc. (CG)
   ISIF   =      2    stress and relaxation
   IWAVPR =     11    prediction:  0-non 1-charg 2-wave 3-comb
   ISYM   =      2    0-nonsym 1-usesym 2-fastsym
   LCORR  =      T    Harris-Foulkes like correction to forces

   POTIM  = 0.5000    time-step for ionic-motion
   TEIN   =    0.0    initial temperature
   TEBEG  =    0.0;   TEEND  =   0.0 temperature during run
   SMASS  =  -3.00    Nose mass-parameter (am)
   estimated Nose-frequenzy (Omega)   =  0.10E-29 period in steps =****** mass=  -0.220E-26a.u.
   SCALEE = 1.0000    scale energy and forces
   NPACO  =    256;   APACO  = 16.0  distance and # of slots for P.C.
   PSTRESS=    0.0 pullay stress

  Mass of Ions in am
   POMASS =  58.69
  Ionic Valenz
   ZVAL   =  16.00
  Atomic Wigner-Seitz radii
   RWIGS  =  -1.00
  virtual crystal weights 
   VCA    =   1.00
   NELECT =    1024.0000    total number of electrons
   NUPDOWN=      -1.0000    fix difference up-down

 DOS related values:
   EMIN   =  10.00;   EMAX   =-10.00  energy-range for DOS
   EFERMI =   0.00
   ISMEAR =     1;   SIGMA  =   0.20  broadening in eV -4-tet -1-fermi 0-gaus

 Electronic relaxation 2 (details)
   IALGO  =     38    algorithm
   LDIAG  =      T    sub-space diagonalisation (order eigenvalues)
   LSUBROT=      F    optimize rotation matrix (better conditioning)
   TURBO    =      0    0=normal 1=particle mesh
   IRESTART =      0    0=no restart 2=restart with 2 vectors
   NREBOOT  =      0    no. of reboots
   NMIN     =      0    reboot dimension
   EREF     =   0.00    reference energy to select bands
   IMIX   =      4    mixing-type and parameters
     AMIX     =   0.40;   BMIX     =  1.00
     AMIX_MAG =   1.60;   BMIX_MAG =  1.00
     AMIN     =   0.10
     WC   =   100.;   INIMIX=   1;  MIXPRE=   1;  MAXMIX= -45

 Intra band minimization:
   WEIMIN = 0.0010     energy-eigenvalue tresh-hold
   EBREAK =  0.39E-09  absolut break condition
   DEPER  =   0.30     relativ break condition  

   TIME   =   0.40     timestep for ELM

  volume/ion in A,a.u.               =      10.46        70.62
  Fermi-wavevector in a.u.,A,eV,Ry     =   1.885990  3.564005 48.395374  3.556960
  Thomas-Fermi vector in A             =   2.928354
 
 Write flags
   LWAVE  =      T    write WAVECAR
   LCHARG =      T    write CHGCAR
   LVTOT  =      F    write LOCPOT, total local potential
   LVHAR  =      F    write LOCPOT, Hartree potential only
   LELF   =      F    write electronic localiz. function (ELF)
   LORBIT =      0    0 simple, 1 ext, 2 COOP (PROOUT)


 Dipole corrections
   LMONO  =      F    monopole corrections only (constant potential shift)
   LDIPOL =      F    correct potential (dipole corrections)
   IDIPOL =      0    1-x, 2-y, 3-z, 4-all directions 
   EPSILON=  1.0000000 bulk dielectric constant

 Exchange correlation treatment:
   GGA     =    --    GGA type
   LEXCH   =     8    internal setting for exchange type
   VOSKOWN=      0    Vosko Wilk Nusair interpolation
   LHFCALC =     F    Hartree Fock is set to
   LHFONE  =     F    Hartree Fock one center treatment
   AEXX    =    0.0000 exact exchange contribution

 Linear response parameters
   LEPSILON=     F    determine dielectric tensor
   LRPA    =     F    only Hartree local field effects (RPA)
   LNABLA  =     F    use nabla operator in PAW spheres
   LVEL    =     F    velocity operator in full k-point grid
   LINTERFAST=   F  fast interpolation
   KINTER  =     0    interpolate to denser k-point grid
   CSHIFT  =0.1000    complex shift for real part using Kramers Kronig
   OMEGAMAX=  -1.0    maximum frequency
   DEG_THRESHOLD= 0.2000000E-02 threshold for treating states as degnerate
   RTIME   =    0.100 relaxation time in fs

 Orbital magnetization related:
   ORBITALMAG=     F  switch on orbital magnetization
   LCHIMAG   =     F  perturbation theory with respect to B field
   DQ        =  0.001000  dq finite difference perturbation B field



--------------------------------------------------------------------------------------------------------


 finite differences with symmetry
 charge density and potential will be updated during run
 spin polarized calculation
 Variant of blocked Davidson
 Davidson routine will perform the subspace rotation
 perform sub-space diagonalisation
    after iterative eigenvector-optimisation
 modified Broyden-mixing scheme, WC =      100.0
 initial mixing is a Kerker type mixing with AMIX =  0.4000 and BMIX =      1.0000
 Hartree-type preconditioning will be used
 using additional bands          136
 real space projection scheme for non local part
 use partial core corrections
 calculate Harris-corrections to forces 
   (improved forces if not selfconsistent)
 use gradient corrections 
 use of overlap-Matrix (Vanderbilt PP)
 Methfessel and Paxton  Order N= 1 SIGMA  =   0.20


--------------------------------------------------------------------------------------------------------


  energy-cutoff  :      459.93
  volume of cell :      669.74
      direct lattice vectors                 reciprocal lattice vectors
     0.000000000  6.944250000  6.944250000    -0.072002016  0.072002016  0.072002016
     6.944250000  0.000000000  6.944250000     0.072002016 -0.072002016  0.072002016
     6.944250000  6.944250000  0.000000000     0.072002016  0.072002016 -0.072002016

  length of vectors
     9.820652531  9.820652531  9.820652531     0.124711150  0.124711150  0.124711150


 
 k-points in units of 2pi/SCALE and weight: Zr 15x15x15                             
   0.00000000  0.00000000  0.00000000       0.037
  -0.02400067  0.02400067  0.02400067       0.296
   0.00000000  0.00000000  0.04800134       0.222
   0.04800134 -0.04800134  0.00000000       0.444
 
 k-points in reciprocal lattice and weights: Zr 15x15x15                             
   0.00000000  0.00000000  0.00000000       0.037
   0.33333333  0.00000000  0.00000000       0.296
   0.33333333  0.33333333  0.00000000       0.222
  -0.33333333  0.33333333  0.00000000       0.444
 
 position of ions in fractional coordinates (direct lattice) 
   0.00000000  0.00000000  0.00000000
   0.00000000  0.00000000  0.25000000
   0.00000000  0.00000000  0.50000000
   0.00000000  0.00000000  0.75000000
   0.00000000  0.25000000  0.00000000
   0.00000000  0.25000000  0.25000000
   0.00000000  0.25000000  0.50000000
   0.00000000  0.25000000  0.75000000
   0.00000000  0.50000000  0.00000000
   0.00000000  0.50000000  0.25000000
   0.00000000  0.50000000  0.50000000
   0.00000000  0.50000000  0.75000000
   0.00000000  0.75000000  0.00000000
   0.00000000  0.75000000  0.25000000
   0.00000000  0.75000000  0.50000000
   0.00000000  0.75000000  0.75000000
   0.25000000  0.00000000  0.00000000
   0.25000000  0.00000000  0.25000000
   0.25000000  0.00000000  0.50000000
   0.25000000  0.00000000  0.75000000
   0.25000000  0.25000000  0.00000000
   0.25000000  0.25000000  0.25000000
   0.25000000  0.25000000  0.50000000
   0.25000000  0.25000000  0.75000000
   0.25000000  0.50000000  0.00000000
   0.25000000  0.50000000  0.25000000
   0.25000000  0.50000000  0.50000000
   0.25000000  0.50000000  0.75000000
   0.25000000  0.75000000  0.00000000
   0.25000000  0.75000000  0.25000000
   0.25000000  0.75000000  0.50000000
   0.25000000  0.75000000  0.75000000
   0.50000000  0.00000000  0.00000000
   0.50000000  0.00000000  0.25000000
   0.50000000  0.00000000  0.50000000
   0.50000000  0.00000000  0.75000000
   0.50000000  0.25000000  0.00000000
   0.50000000  0.25000000  0.25000000
   0.50000000  0.25000000  0.50000000
   0.50000000  0.25000000  0.75000000
   0.50000000  0.50000000  0.00000000
   0.50000000  0.50000000  0.25000000
   0.50000000  0.50000000  0.50000000
   0.50000000  0.50000000  0.75000000
   0.50000000  0.75000000  0.00000000
   0.50000000  0.75000000  0.25000000
   0.50000000  0.75000000  0.50000000
   0.50000000  0.75000000  0.75000000
   0.75000000  0.00000000  0.00000000
   0.75000000  0.00000000  0.25000000
   0.75000000  0.00000000  0.50000000
   0.75000000  0.00000000  0.75000000
   0.75000000  0.25000000  0.00000000
   0.75000000  0.25000000  0.25000000
   0.75000000  0.25000000  0.50000000
   0.75000000  0.25000000  0.75000000
   0.75000000  0.50000000  0.00000000
   0.75000000  0.50000000  0.25000000
   0.75000000  0.50000000  0.50000000
   0.75000000  0.50000000  0.75000000
   0.75000000  0.75000000  0.00000000
   0.75000000  0.75000000  0.25000000
   0.75000000  0.75000000  0.50000000
   0.75000000  0.75000000  0.75000000
 
 position of ions in cartesian coordinates  (Angst):
   0.00000000  0.00000000  0.00000000
   1.73606250  1.73606250  0.00000000
   3.47212500  3.47212500  0.00000000
   5.20818750  5.20818750  0.00000000
   1.73606250  0.00000000  1.73606250
   3.47212500  1.73606250  1.73606250
   5.20818750  3.47212500  1.73606250
   6.94425000  5.20818750  1.73606250
   3.47212500  0.00000000  3.47212500
   5.20818750  1.73606250  3.47212500
   6.94425000  3.47212500  3.47212500
   8.68031250  5.20818750  3.47212500
   5.20818750  0.00000000  5.20818750
   6.94425000  1.73606250  5.20818750
   8.68031250  3.47212500  5.20818750
  10.41637500  5.20818750  5.20818750
   0.00000000  1.73606250  1.73606250
   1.73606250  3.47212500  1.73606250
   3.47212500  5.20818750  1.73606250
   5.20818750  6.94425000  1.73606250
   1.73606250  1.73606250  3.47212500
   3.47212500  3.47212500  3.47212500
   5.20818750  5.20818750  3.47212500
   6.94425000  6.94425000  3.47212500
   3.47212500  1.73606250  5.20818750
   5.20818750  3.47212500  5.20818750
   6.94425000  5.20818750  5.20818750
   8.68031250  6.94425000  5.20818750
   5.20818750  1.73606250  6.94425000
   6.94425000  3.47212500  6.94425000
   8.68031250  5.20818750  6.94425000
  10.41637500  6.94425000  6.94425000
   0.00000000  3.47212500  3.47212500
   1.73606250  5.20818750  3.47212500
   3.47212500  6.94425000  3.47212500
   5.20818750  8.68031250  3.47212500
   1.73606250  3.47212500  5.20818750
   3.47212500  5.20818750  5.20818750
   5.20818750  6.94425000  5.20818750
   6.94425000  8.68031250  5.20818750
   3.47212500  3.47212500  6.94425000
   5.20818750  5.20818750  6.94425000
   6.94425000  6.94425000  6.94425000
   8.68031250  8.68031250  6.94425000
   5.20818750  3.47212500  8.68031250
   6.94425000  5.20818750  8.68031250
   8.68031250  6.94425000  8.68031250
  10.41637500  8.68031250  8.68031250
   0.00000000  5.20818750  5.20818750
   1.73606250  6.94425000  5.20818750
   3.47212500  8.68031250  5.20818750
   5.20818750 10.41637500  5.20818750
   1.73606250  5.20818750  6.94425000
   3.47212500  6.94425000  6.94425000
   5.20818750  8.68031250  6.94425000
   6.94425000 10.41637500  6.94425000
   3.47212500  5.20818750  8.68031250
   5.20818750  6.94425000  8.68031250
   6.94425000  8.68031250  8.68031250
   8.68031250 10.41637500  8.68031250
   5.20818750  5.20818750 10.41637500
   6.94425000  6.94425000 10.41637500
   8.68031250  8.68031250 10.41637500
  10.41637500 10.41637500 10.41637500
 


--------------------------------------------------------------------------------------------------------


 k-point  1 :   0.0000 0.0000 0.0000  plane waves:   15065
 k-point  2 :   0.3333 0.0000 0.0000  plane waves:   15016
 k-point  3 :   0.3333 0.3333 0.0000  plane waves:   14992
 k-point  4 :  -0.3333 0.3333 0.0000  plane waves:   15017

 maximum and minimum number of plane-waves per node :     15065    14992

 maximum number of plane-waves:     15065
 maximum index in each direction: 
   IXMAX=   17   IYMAX=   17   IZMAX=   17
   IXMIN=  -17   IYMIN=  -17   IZMIN=  -17

 NGX is ok and might be reduce to  70
 NGY is ok and might be reduce to  70
 NGZ is ok and might be reduce to  70

 serial   3D FFT for wavefunctions
 parallel 3D FFT for charge:
    minimum data exchange during FFTs selected (reduces bandwidth)


 total amount of memory used by VASP on root node   484004. kBytes
========================================================================

   base      :      30000. kBytes
   nonlr-proj:      40046. kBytes
   fftplans  :      16527. kBytes
   grid      :      59104. kBytes
   one-center:       1990. kBytes
   wavefun   :     336337. kBytes
 
     INWAV:  cpu time    0.0000: real time    0.0000
 Broyden mixing: mesh for mixing (old mesh)
   NGX = 35   NGY = 35   NGZ = 35
  (NGX  =120   NGY  =120   NGZ  =120)
  gives a total of  42875 points

 initial charge density was supplied:
 charge density of overlapping atoms calculated
 number of electron    1024.0000000 magnetization      64.0000000
 keeping initial charge density in first step


--------------------------------------------------------------------------------------------------------


 Maximum index for non-local projection operator         3564
 Maximum index for augmentation-charges         1718 (set IRDMAX)


--------------------------------------------------------------------------------------------------------


 First call to EWALD:  gamma=   0.203
 Maximum number of real-space cells 3x 3x 3
 Maximum number of reciprocal cells 3x 3x 3

 FEWALD executed in parallel
    FEWALD:  cpu time    0.0270: real time    0.0268


----------------------------------------- Iteration    1(   1)  ---------------------------------------


    POTLOK:  cpu time    1.0708: real time    1.0692
    SETDIJ:  cpu time    0.1950: real time    0.1941
     EDDAV:  cpu time  331.6576: real time  331.3842
       DOS:  cpu time    0.0240: real time    0.0242
    --------------------------------------------
      LOOP:  cpu time  332.9474: real time  332.6752

 eigenvalue-minimisations  : 11560
 total energy-change (2. order) : 0.1610667E+05  (-0.5924783E+05)
 number of electron    1024.0000000 magnetization      64.0000000
 augmentation part     1024.0000000 magnetization      64.0000000

 Free energy of the ion-electron system (eV)
  ---------------------------------------------------
  alpha Z        PSCENC =     10302.80525912
  Ewald energy   TEWEN  =   -155767.55935366
  -Hartree energ DENC   =    -60457.14383376
  -exchange      EXHF   =         0.00000000
  -V(xc)+E(xc)   XCENC  =      5728.73189128
  PAW double counting   =    172361.15642774  -181272.45834873
  entropy T*S    EENTRO =        -0.00452208
  eigenvalues    EBANDS =      1194.49527486
  atomic energy  EATOM  =    224016.65216645
  Solvation  Ediel_sol  =         0.00000000
  ---------------------------------------------------
  free energy    TOTEN  =     16106.67496122 eV

  energy without entropy =    16106.67948331  energy(sigma->0) =    16106.67646858


--------------------------------------------------------------------------------------------------------




----------------------------------------- Iteration    1(   2)  ---------------------------------------


     EDDAV:  cpu time  305.7325: real time  305.4829
       DOS:  cpu time    0.0260: real time    0.0265
    --------------------------------------------
      LOOP:  cpu time  305.7595: real time  305.5201

 eigenvalue-minimisations  : 10368
 total energy-change (2. order) :-0.1491298E+05  (-0.1446521E+05)
 number of electron    1024.0000000 magnetization      64.0000000
 augmentation part     1024.0000000 magnetization      64.0000000

 Free energy of the ion-electron system (eV)
  ---------------------------------------------------
  alpha Z        PSCENC =     10302.80525912
  Ewald energy   TEWEN  =   -155767.55935366
  -Hartree energ DENC   =    -60457.14383376
  -exchange      EXHF   =         0.00000000
  -V(xc)+E(xc)   XCENC  =      5728.73189128
  PAW double counting   =    172361.15642774  -181272.45834873
  entropy T*S    EENTRO =         0.00522053
  eigenvalues    EBANDS =    -13718.49886481
  atomic energy  EATOM  =    224016.65216645
  Solvation  Ediel_sol  =         0.00000000
  ---------------------------------------------------
  free energy    TOTEN  =      1193.69056417 eV

  energy without entropy =     1193.68534364  energy(sigma->0) =     1193.68882399


--------------------------------------------------------------------------------------------------------




----------------------------------------- Iteration    1(   3)  ---------------------------------------


     EDDAV:  cpu time  310.4378: real time  310.1821
       DOS:  cpu time    0.0150: real time    0.0146
    --------------------------------------------
      LOOP:  cpu time  310.4538: real time  310.1972

 eigenvalue-minimisations  : 10488
 total energy-change (2. order) :-0.1537233E+04  (-0.1290516E+04)
 number of electron    1024.0000000 magnetization      64.0000000
 augmentation part     1024.0000000 magnetization      64.0000000

 Free energy of the ion-electron system (eV)
  ---------------------------------------------------
  alpha Z        PSCENC =     10302.80525912
  Ewald energy   TEWEN  =   -155767.55935366
  -Hartree energ DENC   =    -60457.14383376
  -exchange      EXHF   =         0.00000000
  -V(xc)+E(xc)   XCENC  =      5728.73189128
  PAW double counting   =    172361.15642774  -181272.45834873
  entropy T*S    EENTRO =         0.07373367
  eigenvalues    EBANDS =    -15255.80040664
  atomic energy  EATOM  =    224016.65216645
  Solvation  Ediel_sol  =         0.00000000
  ---------------------------------------------------
  free energy    TOTEN  =      -343.54246452 eV

  energy without entropy =     -343.61619819  energy(sigma->0) =     -343.56704241


--------------------------------------------------------------------------------------------------------




----------------------------------------- Iteration    1(   4)  ---------------------------------------


     EDDAV:  cpu time  321.4501: real time  321.1859
       DOS:  cpu time    0.0310: real time    0.0307
    --------------------------------------------
      LOOP:  cpu time  321.4931: real time  321.2291

 eigenvalue-minimisations  : 11064
 total energy-change (2. order) :-0.8721172E+02  (-0.8469339E+02)
 number of electron    1024.0000000 magnetization      64.0000000
 augmentation part     1024.0000000 magnetization      64.0000000

 Free energy of the ion-electron system (eV)
  ---------------------------------------------------
  alpha Z        PSCENC =     10302.80525912
  Ewald energy   TEWEN  =   -155767.55935366
  -Hartree energ DENC   =    -60457.14383376
  -exchange      EXHF   =         0.00000000
  -V(xc)+E(xc)   XCENC  =      5728.73189128
  PAW double counting   =    172361.15642774  -181272.45834873
  entropy T*S    EENTRO =         0.13724261
  eigenvalues    EBANDS =    -15343.07563596
  atomic energy  EATOM  =    224016.65216645
  Solvation  Ediel_sol  =         0.00000000
  ---------------------------------------------------
  free energy    TOTEN  =      -430.75418491 eV

  energy without entropy =     -430.89142752  energy(sigma->0) =     -430.79993244


--------------------------------------------------------------------------------------------------------




----------------------------------------- Iteration    1(   5)  ---------------------------------------


     EDDAV:  cpu time  323.5168: real time  323.2528
       DOS:  cpu time    0.0280: real time    0.0286
    CHARGE:  cpu time   14.9197: real time   14.9080
    MIXING:  cpu time    0.0770: real time    0.0766
    --------------------------------------------
      LOOP:  cpu time  338.5585: real time  338.2826

 eigenvalue-minimisations  : 11056
 total energy-change (2. order) :-0.1442125E+01  (-0.1440254E+01)
 number of electron    1023.9995176 magnetization      57.6776527
 augmentation part      574.0644667 magnetization      46.1855360

 Broyden mixing:
  rms(total) = 0.67289E+01    rms(broyden)= 0.67273E+01
  rms(prec ) = 0.91943E+01
  weight for this iteration     100.00

 Free energy of the ion-electron system (eV)
  ---------------------------------------------------
  alpha Z        PSCENC =     10302.80525912
  Ewald energy   TEWEN  =   -155767.55935366
  -Hartree energ DENC   =    -60457.14383376
  -exchange      EXHF   =         0.00000000
  -V(xc)+E(xc)   XCENC  =      5728.73189128
  PAW double counting   =    172361.15642774  -181272.45834873
  entropy T*S    EENTRO =         0.13779938
  eigenvalues    EBANDS =    -15344.51831737
  atomic energy  EATOM  =    224016.65216645
  Solvation  Ediel_sol  =         0.00000000
  ---------------------------------------------------
  free energy    TOTEN  =      -432.19630955 eV

  energy without entropy =     -432.33410893  energy(sigma->0) =     -432.24224267


--------------------------------------------------------------------------------------------------------




----------------------------------------- Iteration    1(   6)  ---------------------------------------


    POTLOK:  cpu time    1.0318: real time    1.0316
    SETDIJ:  cpu time    0.1950: real time    0.1942
     EDDAV:  cpu time  316.4719: real time26235.2430
       DOS:  cpu time    0.0150: real time    0.0147
    CHARGE:  cpu time   14.5438: real time   14.5327
    MIXING:  cpu time    0.0450: real time    0.0450
    --------------------------------------------
      LOOP:  cpu time  332.3215: real time26251.0802

 eigenvalue-minimisations  : 10896
 total energy-change (2. order) : 0.3861044E+02  (-0.5588665E+02)
 number of electron    1023.9994716 magnetization      50.9748802
 augmentation part      627.0347197 magnetization      45.3838240

 Broyden mixing:
  rms(total) = 0.44711E+01    rms(broyden)= 0.44708E+01
  rms(prec ) = 0.56018E+01
  weight for this iteration     100.00

 eigenvalues of (default mixing * dielectric matrix)
  average eigenvalue GAMMA=   0.5837
  0.5837

 Free energy of the ion-electron system (eV)
  ---------------------------------------------------
  alpha Z        PSCENC =     10302.80525912
  Ewald energy   TEWEN  =   -155767.55935366
  -Hartree energ DENC   =    -57346.61130575
  -exchange      EXHF   =         0.00000000
  -V(xc)+E(xc)   XCENC  =      5608.30136202
  PAW double counting   =    168475.36507606  -177086.75786408
  entropy T*S    EENTRO =        -0.29944607
  eigenvalues    EBANDS =    -18595.48176214
  atomic energy  EATOM  =    224016.65216645
  Solvation  Ediel_sol  =         0.00000000
  ---------------------------------------------------
  free energy    TOTEN  =      -393.58586805 eV

  energy without entropy =     -393.28642198  energy(sigma->0) =     -393.48605270


--------------------------------------------------------------------------------------------------------




----------------------------------------- Iteration    1(   7)  ---------------------------------------


    POTLOK:  cpu time    1.1148: real time    1.1144
    SETDIJ:  cpu time    0.2180: real time    0.2174
     EDDAV:  cpu time  318.6826: real time  318.4207
       DOS:  cpu time    0.0040: real time    0.0042
    CHARGE:  cpu time   14.6838: real time   14.6724
    MIXING:  cpu time    0.0680: real time    0.0666
    --------------------------------------------
      LOOP:  cpu time  334.7881: real time  334.5214

 eigenvalue-minimisations  : 10856
 total energy-change (2. order) : 0.2406844E+02  (-0.1007734E+02)
 number of electron    1023.9994900 magnetization      44.6566053
 augmentation part      605.8549313 magnetization      36.8558820

 Broyden mixing:
  rms(total) = 0.60113E+00    rms(broyden)= 0.60089E+00
  rms(prec ) = 0.73517E+00
  weight for this iteration     100.00

 eigenvalues of (default mixing * dielectric matrix)
  average eigenvalue GAMMA=   0.8352
  1.0661  0.6043

 Free energy of the ion-electron system (eV)
  ---------------------------------------------------
  alpha Z        PSCENC =     10302.80525912
  Ewald energy   TEWEN  =   -155767.55935366
  -Hartree energ DENC   =    -58377.74894677
  -exchange      EXHF   =         0.00000000
  -V(xc)+E(xc)   XCENC  =      5647.37723300
  PAW double counting   =    170895.16237637  -179784.07925107
  entropy T*S    EENTRO =        -0.10611594
  eigenvalues    EBANDS =    -17302.02079755
  atomic energy  EATOM  =    224016.65216645
  Solvation  Ediel_sol  =         0.00000000
  ---------------------------------------------------
  free energy    TOTEN  =      -369.51743004 eV

  energy without entropy =     -369.41131411  energy(sigma->0) =     -369.48205806


--------------------------------------------------------------------------------------------------------




----------------------------------------- Iteration    1(   8)  ---------------------------------------


    POTLOK:  cpu time    1.0228: real time    1.0217
    SETDIJ:  cpu time    0.1950: real time    0.1951
     EDDAV:  cpu time  326.2324: real time  325.9628
       DOS:  cpu time    0.0150: real time    0.0149
    CHARGE:  cpu time   14.6168: real time   14.6056
    MIXING:  cpu time    0.0440: real time    0.0437
    --------------------------------------------
      LOOP:  cpu time  342.1430: real time  341.8722

 eigenvalue-minimisations  : 11072
 total energy-change (2. order) : 0.1107738E+00  (-0.1102802E+00)
 number of electron    1023.9994902 magnetization      41.5238733
 augmentation part      605.6452761 magnetization      35.0126970

 Broyden mixing:
  rms(total) = 0.27747E+00    rms(broyden)= 0.27745E+00
  rms(prec ) = 0.36955E+00
  weight for this iteration     100.00

 eigenvalues of (default mixing * dielectric matrix)
  average eigenvalue GAMMA=   1.1595
  0.6215  0.8753  1.9819

 Free energy of the ion-electron system (eV)
  ---------------------------------------------------
  alpha Z        PSCENC =     10302.80525912
  Ewald energy   TEWEN  =   -155767.55935366
  -Hartree energ DENC   =    -58227.08081285
  -exchange      EXHF   =         0.00000000
  -V(xc)+E(xc)   XCENC  =      5642.31850868
  PAW double counting   =    171751.75344431  -180753.65248886
  entropy T*S    EENTRO =        -0.15125527
  eigenvalues    EBANDS =    -17334.49212419
  atomic energy  EATOM  =    224016.65216645
  Solvation  Ediel_sol  =         0.00000000
  ---------------------------------------------------
  free energy    TOTEN  =      -369.40665626 eV

  energy without entropy =     -369.25540099  energy(sigma->0) =     -369.35623784


--------------------------------------------------------------------------------------------------------




----------------------------------------- Iteration    1(   9)  ---------------------------------------


    POTLOK:  cpu time    1.0998: real time    1.0987
    SETDIJ:  cpu time    0.2150: real time    0.2152
     EDDAV:  cpu time  349.6428: real time  349.3548
       DOS:  cpu time    0.0150: real time    0.0150
    CHARGE:  cpu time   14.5178: real time   14.5063
    MIXING:  cpu time    0.0860: real time    0.0861
    --------------------------------------------
      LOOP:  cpu time  365.5774: real time  365.2882

 eigenvalue-minimisations  : 12104
 total energy-change (2. order) : 0.1195430E+00  (-0.1521581E-01)
 number of electron    1023.9994896 magnetization      41.6501696
 augmentation part      606.3341801 magnetization      35.8695072

 Broyden mixing:
  rms(total) = 0.70570E-01    rms(broyden)= 0.70562E-01
  rms(prec ) = 0.72907E-01
  weight for this iteration     100.00

 eigenvalues of (default mixing * dielectric matrix)
  average eigenvalue GAMMA=   1.1096
  2.2287  0.9593  0.6253  0.6253

 Free energy of the ion-electron system (eV)
  ---------------------------------------------------
  alpha Z        PSCENC =     10302.80525912
  Ewald energy   TEWEN  =   -155767.55935366
  -Hartree energ DENC   =    -58092.80052621
  -exchange      EXHF   =         0.00000000
  -V(xc)+E(xc)   XCENC  =      5637.69972013
  PAW double counting   =    172327.98341252  -181395.99606371
  entropy T*S    EENTRO =        -0.17982571
  eigenvalues    EBANDS =    -17397.89190221
  atomic energy  EATOM  =    224016.65216645
  Solvation  Ediel_sol  =         0.00000000
  ---------------------------------------------------
  free energy    TOTEN  =      -369.28711327 eV

  energy without entropy =     -369.10728757  energy(sigma->0) =     -369.22717137


--------------------------------------------------------------------------------------------------------




----------------------------------------- Iteration    1(  10)  ---------------------------------------


    POTLOK:  cpu time    1.0548: real time    1.0540
    SETDIJ:  cpu time    0.1960: real time    0.1949
     EDDAV:  cpu time  331.7196: real time  331.4516
       DOS:  cpu time    0.0040: real time    0.0041
    CHARGE:  cpu time   14.6888: real time   14.6778
    MIXING:  cpu time    0.1090: real time    0.1098
    --------------------------------------------
      LOOP:  cpu time  347.7751: real time  347.5032

 eigenvalue-minimisations  : 11336
 total energy-change (2. order) :-0.3717231E-02  (-0.1090988E-02)
 number of electron    1023.9994896 magnetization      42.0990512
 augmentation part      606.3351670 magnetization      36.2713620

 Broyden mixing:
  rms(total) = 0.25446E-01    rms(broyden)= 0.25443E-01
  rms(prec ) = 0.26546E-01
  weight for this iteration     100.00

 eigenvalues of (default mixing * dielectric matrix)
  average eigenvalue GAMMA=   1.2414
  2.3052  1.6453  1.0142  0.6211  0.6211

 Free energy of the ion-electron system (eV)
  ---------------------------------------------------
  alpha Z        PSCENC =     10302.80525912
  Ewald energy   TEWEN  =   -155767.55935366
  -Hartree energ DENC   =    -58084.97075921
  -exchange      EXHF   =         0.00000000
  -V(xc)+E(xc)   XCENC  =      5637.47195917
  PAW double counting   =    172429.98979046  -181503.19201946
  entropy T*S    EENTRO =        -0.17989784
  eigenvalues    EBANDS =    -17400.30797553
  atomic energy  EATOM  =    224016.65216645
  Solvation  Ediel_sol  =         0.00000000
  ---------------------------------------------------
  free energy    TOTEN  =      -369.29083050 eV

  energy without entropy =     -369.11093266  energy(sigma->0) =     -369.23086456


--------------------------------------------------------------------------------------------------------




----------------------------------------- Iteration    1(  11)  ---------------------------------------


    POTLOK:  cpu time    1.0918: real time    1.0916
    SETDIJ:  cpu time    0.2170: real time    0.2162
     EDDAV:  cpu time  328.6960: real time  328.4250
       DOS:  cpu time    0.0410: real time    0.0416
    CHARGE:  cpu time   14.8008: real time   14.7894
    MIXING:  cpu time    0.0480: real time    0.0483
    --------------------------------------------
      LOOP:  cpu time  344.9156: real time  344.6419

 eigenvalue-minimisations  : 11128
 total energy-change (2. order) :-0.2127040E-02  (-0.3413743E-03)
 number of electron    1023.9994896 magnetization      42.1010986
 augmentation part      606.2789929 magnetization      36.1642007

 Broyden mixing:
  rms(total) = 0.87317E-02    rms(broyden)= 0.87288E-02
  rms(prec ) = 0.10816E-01
  weight for this iteration     100.00

 eigenvalues of (default mixing * dielectric matrix)
  average eigenvalue GAMMA=   1.1814
  2.3787  1.7512  1.0080  0.6696  0.6696  0.6115

 Free energy of the ion-electron system (eV)
  ---------------------------------------------------
  alpha Z        PSCENC =     10302.80525912
  Ewald energy   TEWEN  =   -155767.55935366
  -Hartree energ DENC   =    -58086.61946299
  -exchange      EXHF   =         0.00000000
  -V(xc)+E(xc)   XCENC  =      5637.52656688
  PAW double counting   =    172541.35581588  -181615.46952040
  entropy T*S    EENTRO =        -0.17877699
  eigenvalues    EBANDS =    -17397.80565184
  atomic energy  EATOM  =    224016.65216645
  Solvation  Ediel_sol  =         0.00000000
  ---------------------------------------------------
  free energy    TOTEN  =      -369.29295754 eV

  energy without entropy =     -369.11418055  energy(sigma->0) =     -369.23336521


--------------------------------------------------------------------------------------------------------




----------------------------------------- Iteration    1(  12)  ---------------------------------------


    POTLOK:  cpu time    1.0318: real time    1.0310
    SETDIJ:  cpu time    0.1960: real time    0.1959
     EDDAV:  cpu time  326.9323: real time  326.6681
       DOS:  cpu time    0.0150: real time    0.0155
    CHARGE:  cpu time   14.6948: real time   14.6825
    MIXING:  cpu time    0.1090: real time    0.1076
    --------------------------------------------
      LOOP:  cpu time  342.9809: real time  342.7113

 eigenvalue-minimisations  : 10912
 total energy-change (2. order) :-0.5202234E-04  (-0.4054342E-04)
 number of electron    1023.9994896 magnetization      42.0860691
 augmentation part      606.3127012 magnetization      36.1503168

 Broyden mixing:
  rms(total) = 0.27741E-02    rms(broyden)= 0.27725E-02
  rms(prec ) = 0.29704E-02
  weight for this iteration     100.00

 eigenvalues of (default mixing * dielectric matrix)
  average eigenvalue GAMMA=   1.1970
  2.4368  1.7438  1.3048  0.9607  0.6786  0.6388  0.6152

 Free energy of the ion-electron system (eV)
  ---------------------------------------------------
  alpha Z        PSCENC =     10302.80525912
  Ewald energy   TEWEN  =   -155767.55935366
  -Hartree energ DENC   =    -58084.23284777
  -exchange      EXHF   =         0.00000000
  -V(xc)+E(xc)   XCENC  =      5637.43578633
  PAW double counting   =    172565.48559680  -181639.63033085
  entropy T*S    EENTRO =        -0.17985702
  eigenvalues    EBANDS =    -17400.06942897
  atomic energy  EATOM  =    224016.65216645
  Solvation  Ediel_sol  =         0.00000000
  ---------------------------------------------------
  free energy    TOTEN  =      -369.29300957 eV

  energy without entropy =     -369.11315255  energy(sigma->0) =     -369.23305723


--------------------------------------------------------------------------------------------------------




----------------------------------------- Iteration    1(  13)  ---------------------------------------


    POTLOK:  cpu time    1.0908: real time    1.0906
    SETDIJ:  cpu time    0.2130: real time    0.2122
     EDDAV:  cpu time  309.1070: real time  308.8521
       DOS:  cpu time    0.0420: real time    0.0418
    CHARGE:  cpu time   14.6698: real time   14.6583
    MIXING:  cpu time    0.0690: real time    0.0685
    --------------------------------------------
      LOOP:  cpu time  325.1916: real time  324.9350

 eigenvalue-minimisations  : 10288
 total energy-change (2. order) :-0.5505688E-05  (-0.2100395E-05)
 number of electron    1023.9994896 magnetization      42.0732206
 augmentation part      606.3201420 magnetization      36.1392924

 Broyden mixing:
  rms(total) = 0.20093E-02    rms(broyden)= 0.20092E-02
  rms(prec ) = 0.26665E-02
  weight for this iteration     100.00

 eigenvalues of (default mixing * dielectric matrix)
  average eigenvalue GAMMA=   1.2639
  2.4476  1.9283  1.9283  1.0127  0.6214  0.6214  0.7758  0.7758

 Free energy of the ion-electron system (eV)
  ---------------------------------------------------
  alpha Z        PSCENC =     10302.80525912
  Ewald energy   TEWEN  =   -155767.55935366
  -Hartree energ DENC   =    -58084.07564532
  -exchange      EXHF   =         0.00000000
  -V(xc)+E(xc)   XCENC  =      5637.42726564
  PAW double counting   =    172578.58323547  -181652.40711173
  entropy T*S    EENTRO =        -0.18023082
  eigenvalues    EBANDS =    -17400.53860022
  atomic energy  EATOM  =    224016.65216645
  Solvation  Ediel_sol  =         0.00000000
  ---------------------------------------------------
  free energy    TOTEN  =      -369.29301507 eV

  energy without entropy =     -369.11278425  energy(sigma->0) =     -369.23293813


--------------------------------------------------------------------------------------------------------




----------------------------------------- Iteration    1(  14)  ---------------------------------------


    POTLOK:  cpu time    1.0048: real time    1.0037
    SETDIJ:  cpu time    0.1960: real time    0.1951
     EDDAV:  cpu time  282.8740: real time  282.6559
       DOS:  cpu time    0.0050: real time    0.0054
    CHARGE:  cpu time   14.7908: real time   14.7785
    MIXING:  cpu time    0.0870: real time    0.0872
    --------------------------------------------
      LOOP:  cpu time  298.9725: real time  298.7413

 eigenvalue-minimisations  :  9184
 total energy-change (2. order) : 0.2420848E-04  (-0.9622916E-06)
 number of electron    1023.9994896 magnetization      42.0715653
 augmentation part      606.3146092 magnetization      36.1388687

 Broyden mixing:
  rms(total) = 0.48459E-03    rms(broyden)= 0.48442E-03
  rms(prec ) = 0.60809E-03
  weight for this iteration     100.00

 eigenvalues of (default mixing * dielectric matrix)
  average eigenvalue GAMMA=   1.2765
  2.5313  2.4526  1.8473  1.0547  0.8515  0.8515  0.6247  0.6247  0.6507

 Free energy of the ion-electron system (eV)
  ---------------------------------------------------
  alpha Z        PSCENC =     10302.80525912
  Ewald energy   TEWEN  =   -155767.55935366
  -Hartree energ DENC   =    -58084.84299418
  -exchange      EXHF   =         0.00000000
  -V(xc)+E(xc)   XCENC  =      5637.45403789
  PAW double counting   =    172587.75889537  -181661.22536890
  entropy T*S    EENTRO =        -0.18034680
  eigenvalues    EBANDS =    -17400.15528615
  atomic energy  EATOM  =    224016.65216645
  Solvation  Ediel_sol  =         0.00000000
  ---------------------------------------------------
  free energy    TOTEN  =      -369.29299086 eV

  energy without entropy =     -369.11264406  energy(sigma->0) =     -369.23287526


--------------------------------------------------------------------------------------------------------




----------------------------------------- Iteration    1(  15)  ---------------------------------------


    POTLOK:  cpu time    1.0278: real time    1.0275
    SETDIJ:  cpu time    0.1960: real time    0.1953
     EDDAV:  cpu time  197.0260: real time  196.8638
       DOS:  cpu time    0.0350: real time    0.0349
    CHARGE:  cpu time   14.7258: real time   14.7135
    MIXING:  cpu time    0.0630: real time    0.0620
    --------------------------------------------
      LOOP:  cpu time  213.0926: real time  212.9264

 eigenvalue-minimisations  :  5472
 total energy-change (2. order) : 0.4810456E-05  (-0.8917281E-07)
 number of electron    1023.9994896 magnetization      42.0725688
 augmentation part      606.3129309 magnetization      36.1398204

 Broyden mixing:
  rms(total) = 0.12309E-03    rms(broyden)= 0.12300E-03
  rms(prec ) = 0.12378E-03
  weight for this iteration     100.00

 eigenvalues of (default mixing * dielectric matrix)
  average eigenvalue GAMMA=   1.2467
  2.6141  2.4441  1.7981  1.1758  0.9079  0.9079  0.7367  0.6242  0.6242  0.6337

 Free energy of the ion-electron system (eV)
  ---------------------------------------------------
  alpha Z        PSCENC =     10302.80525912
  Ewald energy   TEWEN  =   -155767.55935366
  -Hartree energ DENC   =    -58085.02189218
  -exchange      EXHF   =         0.00000000
  -V(xc)+E(xc)   XCENC  =      5637.46043980
  PAW double counting   =    172589.45124113  -181662.85048872
  entropy T*S    EENTRO =        -0.18032712
  eigenvalues    EBANDS =    -17400.05003087
  atomic energy  EATOM  =    224016.65216645
  Solvation  Ediel_sol  =         0.00000000
  ---------------------------------------------------
  free energy    TOTEN  =      -369.29298605 eV

  energy without entropy =     -369.11265893  energy(sigma->0) =     -369.23287701


--------------------------------------------------------------------------------------------------------




----------------------------------------- Iteration    1(  16)  ---------------------------------------


    POTLOK:  cpu time    1.0018: real time    1.0008
    SETDIJ:  cpu time    0.1950: real time    0.1952
     EDDAV:  cpu time  198.2959: real time  198.1320
       DOS:  cpu time    0.0320: real time    0.0318
    --------------------------------------------
      LOOP:  cpu time  199.5247: real time  199.3613

 eigenvalue-minimisations  :  5464
 total energy-change (2. order) :-0.2016895E-06  (-0.1523716E-07)
 number of electron    1023.9994896 magnetization      42.0725688
 augmentation part      606.3129309 magnetization      36.1398204

 Free energy of the ion-electron system (eV)
  ---------------------------------------------------
  alpha Z        PSCENC =     10302.80525912
  Ewald energy   TEWEN  =   -155767.55935366
  -Hartree energ DENC   =    -58085.02150156
  -exchange      EXHF   =         0.00000000
  -V(xc)+E(xc)   XCENC  =      5637.46063824
  PAW double counting   =    172589.37774874  -181662.77675519
  entropy T*S    EENTRO =        -0.18030513
  eigenvalues    EBANDS =    -17400.05088327
  atomic energy  EATOM  =    224016.65216645
  Solvation  Ediel_sol  =         0.00000000
  ---------------------------------------------------
  free energy    TOTEN  =      -369.29298626 eV

  energy without entropy =     -369.11268113  energy(sigma->0) =     -369.23288455


--------------------------------------------------------------------------------------------------------




 average (electrostatic) potential at core
  the test charge radii are     0.8614
  (the norm of the test charge is              1.0000)
       1 -78.9366       2 -78.9366       3 -78.9366       4 -78.9366       5 -78.9366
       6 -78.9366       7 -78.9366       8 -78.9366       9 -78.9366      10 -78.9366
      11 -78.9366      12 -78.9366      13 -78.9366      14 -78.9366      15 -78.9366
      16 -78.9366      17 -78.9366      18 -78.9366      19 -78.9366      20 -78.9366
      21 -78.9366      22 -78.9366      23 -78.9366      24 -78.9366      25 -78.9366
      26 -78.9366      27 -78.9366      28 -78.9366      29 -78.9366      30 -78.9366
      31 -78.9366      32 -78.9366      33 -78.9366      34 -78.9366      35 -78.9366
      36 -78.9366      37 -78.9366      38 -78.9366      39 -78.9366      40 -78.9366
      41 -78.9366      42 -78.9366      43 -78.9366      44 -78.9366      45 -78.9366
      46 -78.9366      47 -78.9366      48 -78.9366      49 -78.9366      50 -78.9366
      51 -78.9366      52 -78.9366      53 -78.9366      54 -78.9366      55 -78.9366
      56 -78.9366      57 -78.9366      58 -78.9366      59 -78.9366      60 -78.9366
      61 -78.9366      62 -78.9366      63 -78.9366      64 -78.9366
 
 
 
 E-fermi :   8.3842     XC(G=0): -14.0345     alpha+bet :-15.4723


 spin component 1

 k-point     1 :       0.0000    0.0000    0.0000
  band No.  band energies     occupation 
      1     -55.7785      1.00000
      2     -55.7784      1.00000
      3     -55.7784      1.00000
      4     -55.7784      1.00000
      5     -55.7648      1.00000
      6     -55.7648      1.00000
      7     -55.7648      1.00000
      8     -55.7361      1.00000
      9     -55.7361      1.00000
     10     -55.7361      1.00000
     11     -55.7361      1.00000
     12     -55.7361      1.00000
     13     -55.7361      1.00000
     14     -55.7360      1.00000
     15     -55.7360      1.00000
     16     -55.7360      1.00000
     17     -55.7360      1.00000
     18     -55.7360      1.00000
     19     -55.7360      1.00000
     20     -55.7360      1.00000
     21     -55.7360      1.00000
     22     -55.7360      1.00000
     23     -55.7360      1.00000
     24     -55.7360      1.00000
     25     -55.7360      1.00000
     26     -55.7360      1.00000
     27     -55.7360      1.00000
     28     -55.7360      1.00000
     29     -55.7360      1.00000
     30     -55.7360      1.00000
     31     -55.7360      1.00000
     32     -55.7075      1.00000
     33     -55.7075      1.00000
     34     -55.7075      1.00000
     35     -55.7075      1.00000
     36     -55.7075      1.00000
     37     -55.7075      1.00000
     38     -55.7075      1.00000
     39     -55.7075      1.00000
     40     -55.7075      1.00000
     41     -55.7075      1.00000
     42     -55.7075      1.00000
     43     -55.7075      1.00000
     44     -55.6934      1.00000
     45     -55.6934      1.00000
     46     -55.6934      1.00000
     47     -55.6934      1.00000
     48     -55.6934      1.00000
     49     -55.6934      1.00000
     50     -55.6933      1.00000
     51     -55.6933      1.00000
     52     -55.6933      1.00000
     53     -55.6933      1.00000
     54     -55.6933      1.00000
     55     -55.6933      1.00000
     56     -55.6541      1.00000
     57     -55.6541      1.00000
     58     -55.6540      1.00000
     59     -55.6540      1.00000
     60     -55.6540      1.00000
     61     -55.6540      1.00000
     62     -55.6540      1.00000
     63     -55.6540      1.00000
     64     -55.6488      1.00000
     65     -55.6488      1.00000
     66     -55.6488      1.00000
     67     -55.6488      1.00000
     68     -55.6488      1.00000
     69     -55.6488      1.00000
     70     -55.6342      1.00000
     71     -55.6342      1.00000
     72     -55.6342      1.00000
     73     -55.6342      1.00000
     74     -55.6342      1.00000
     75     -55.6342      1.00000
     76     -55.6342      1.00000
     77     -55.6342      1.00000
     78     -55.6342      1.00000
     79     -55.6342      1.00000
     80     -55.6342      1.00000
     81     -55.6342      1.00000
     82     -55.6289      1.00000
     83     -55.6289      1.00000
     84     -55.6289      1.00000
     85     -55.6289      1.00000
     86     -55.6289      1.00000
     87     -55.6289      1.00000
     88     -55.6288      1.00000
     89     -55.6288      1.00000
     90     -55.6288      1.00000
     91     -55.6288      1.00000
     92     -55.6288      1.00000
     93     -55.6288      1.00000
     94     -55.6288      1.00000
     95     -55.6288      1.00000
     96     -55.6288      1.00000
     97     -55.6288      1.00000
     98     -55.6288      1.00000
     99     -55.6288      1.00000
    100     -55.6288      1.00000
    101     -55.6288      1.00000
    102     -55.6288      1.00000
    103     -55.6288      1.00000
    104     -55.6288      1.00000
    105     -55.6288      1.00000
    106     -55.6233      1.00000
    107     -55.6233      1.00000
    108     -55.6233      1.00000
    109     -55.6233      1.00000
    110     -55.6233      1.00000
    111     -55.6233      1.00000
    112     -55.6214      1.00000
    113     -55.6214      1.00000
    114     -55.6214      1.00000
    115     -55.6213      1.00000
    116     -55.6213      1.00000
    117     -55.6213      1.00000
    118     -55.5927      1.00000
    119     -55.5927      1.00000
    120     -55.5927      1.00000
    121     -55.5927      1.00000
    122     -55.5927      1.00000
    123     -55.5927      1.00000
    124     -55.5927      1.00000
    125     -55.5927      1.00000
    126     -55.5927      1.00000
    127     -55.5927      1.00000
    128     -55.5927      1.00000
    129     -55.5927      1.00000
    130     -55.5927      1.00000
    131     -55.5927      1.00000
    132     -55.5927      1.00000
    133     -55.5927      1.00000
    134     -55.5927      1.00000
    135     -55.5927      1.00000
    136     -55.5927      1.00000
    137     -55.5927      1.00000
    138     -55.5927      1.00000
    139     -55.5927      1.00000
    140     -55.5927      1.00000
    141     -55.5927      1.00000
    142     -55.5749      1.00000
    143     -55.5749      1.00000
    144     -55.5749      1.00000
    145     -55.5749      1.00000
    146     -55.5749      1.00000
    147     -55.5749      1.00000
    148     -55.5748      1.00000
    149     -55.5748      1.00000
    150     -55.5748      1.00000
    151     -55.5748      1.00000
    152     -55.5748      1.00000
    153     -55.5748      1.00000
    154     -55.5641      1.00000
    155     -55.5641      1.00000
    156     -55.5641      1.00000
    157     -55.5641      1.00000
    158     -55.5641      1.00000
    159     -55.5641      1.00000
    160     -55.5641      1.00000
    161     -55.5641      1.00000
    162     -55.5641      1.00000
    163     -55.5641      1.00000
    164     -55.5641      1.00000
    165     -55.5641      1.00000
    166     -55.5640      1.00000
    167     -55.5640      1.00000
    168     -55.5640      1.00000
    169     -55.5640      1.00000
    170     -55.5640      1.00000
    171     -55.5640      1.00000
    172     -55.5640      1.00000
    173     -55.5640      1.00000
    174     -55.5462      1.00000
    175     -55.5462      1.00000
    176     -55.5462      1.00000
    177     -55.5462      1.00000
    178     -55.5462      1.00000
    179     -55.5462      1.00000
    180     -55.5462      1.00000
    181     -55.5462      1.00000
    182     -55.5462      1.00000
    183     -55.5462      1.00000
    184     -55.5462      1.00000
    185     -55.5462      1.00000
    186     -55.5462      1.00000
    187     -55.5462      1.00000
    188     -55.5462      1.00000
    189     -55.5462      1.00000
    190     -55.5284      1.00000
    191     -55.5284      1.00000
    192     -55.5284      1.00000
    193      -0.9648      1.00000
    194       1.3233      1.00000
    195       1.3233      1.00000
    196       1.3233      1.00000
    197       1.3233      1.00000
    198       1.3233      1.00000
    199       1.3233      1.00000
    200       1.3233      1.00000
    201       1.3233      1.00000
    202       1.9902      1.00000
    203       1.9902      1.00000
    204       1.9902      1.00000
    205       1.9902      1.00000
    206       1.9902      1.00000
    207       1.9902      1.00000
    208       3.2803      1.00000
    209       3.2804      1.00000
    210       3.2804      1.00000
    211       3.2804      1.00000
    212       3.4375      1.00000
    213       3.4375      1.00000
    214       3.4375      1.00000
    215       3.9283      1.00000
    216       3.9283      1.00000
    217       3.9283      1.00000
    218       3.9283      1.00000
    219       3.9283      1.00000
    220       3.9283      1.00000
    221       3.9283      1.00000
    222       3.9283      1.00000
    223       3.9283      1.00000
    224       3.9283      1.00000
    225       3.9283      1.00000
    226       3.9283      1.00000
    227       3.9370      1.00000
    228       3.9370      1.00000
    229       3.9370      1.00000
    230       4.0499      1.00000
    231       4.0499      1.00000
    232       4.0499      1.00000
    233       4.0499      1.00000
    234       4.0499      1.00000
    235       4.0499      1.00000
    236       4.0499      1.00000
    237       4.0499      1.00000
    238       4.0499      1.00000
    239       4.0499      1.00000
    240       4.0499      1.00000
    241       4.0499      1.00000
    242       4.0499      1.00000
    243       4.0499      1.00000
    244       4.0499      1.00000
    245       4.0499      1.00000
    246       4.0499      1.00000
    247       4.0499      1.00000
    248       4.0499      1.00000
    249       4.0499      1.00000
    250       4.0499      1.00000
    251       4.0499      1.00000
    252       4.0499      1.00000
    253       4.0499      1.00000
    254       4.3699      1.00000
    255       4.3699      1.00000
    256       4.3699      1.00000
    257       4.3699      1.00000
    258       4.3699      1.00000
    259       4.3699      1.00000
    260       4.7192      1.00000
    261       4.7192      1.00000
    262       4.7192      1.00000
    263       4.7192      1.00000
    264       4.7192      1.00000
    265       4.7192      1.00000
    266       4.7192      1.00000
    267       4.7192      1.00000
    268       4.7192      1.00000
    269       4.7192      1.00000
    270       4.7192      1.00000
    271       4.7192      1.00000
    272       4.7192      1.00000
    273       4.7192      1.00000
    274       4.7192      1.00000
    275       4.7192      1.00000
    276       4.7192      1.00000
    277       4.7192      1.00000
    278       4.7192      1.00000
    279       4.7192      1.00000
    280       4.7192      1.00000
    281       4.7192      1.00000
    282       4.7192      1.00000
    283       4.7192      1.00000
    284       4.8368      1.00000
    285       4.8368      1.00000
    286       4.8368      1.00000
    287       4.8368      1.00000
    288       4.8368      1.00000
    289       4.8368      1.00000
    290       5.1340      1.00000
    291       5.1340      1.00000
    292       5.1340      1.00000
    293       5.1340      1.00000
    294       5.1340      1.00000
    295       5.1340      1.00000
    296       5.1340      1.00000
    297       5.1340      1.00000
    298       5.1340      1.00000
    299       5.1340      1.00000
    300       5.1340      1.00000
    301       5.1340      1.00000
    302       5.1348      1.00000
    303       5.1348      1.00000
    304       5.1348      1.00000
    305       5.1348      1.00000
    306       5.1348      1.00000
    307       5.1348      1.00000
    308       5.1348      1.00000
    309       5.1348      1.00000
    310       5.1348      1.00000
    311       5.1348      1.00000
    312       5.1348      1.00000
    313       5.1348      1.00000
    314       5.4524      1.00000
    315       5.4524      1.00000
    316       5.4524      1.00000
    317       5.4524      1.00000
    318       5.4524      1.00000
    319       5.4524      1.00000
    320       5.4524      1.00000
    321       5.4524      1.00000
    322       5.4524      1.00000
    323       5.4524      1.00000
    324       5.4524      1.00000
    325       5.4524      1.00000
    326       5.4728      1.00000
    327       5.4728      1.00000
[...]
      6.944250  3.472125  3.472125    -0.000708   -0.000820    0.124995  
      8.680312  5.208188  3.472125    -0.000708   -0.000820    0.124995  
      5.208188  0.000000  5.208188    -0.000708   -0.000820    0.124995  
      6.944250  1.736063  5.208188    -0.000708   -0.000820    0.124995  
      8.680312  3.472125  5.208188    -0.000708   -0.000820    0.124995  
     10.416375  5.208188  5.208188    -0.000708   -0.000820    0.124995  
      0.000000  1.736063  1.736063    -0.000708   -0.000820    0.124995  
      1.736063  3.472125  1.736063    -0.000708   -0.000820    0.124995  
      3.472125  5.208188  1.736063    -0.000708   -0.000820    0.124995  
      5.208188  6.944250  1.736063    -0.000708   -0.000820    0.124995  
      1.736063  1.736063  3.472125    -0.000708   -0.000820    0.124995  
      3.472125  3.472125  3.472125    -0.000708   -0.000820    0.124995  
      5.208188  5.208188  3.472125    -0.000708   -0.000820    0.124995  
      6.944250  6.944250  3.472125    -0.000708   -0.000820    0.124995  
      3.472125  1.736063  5.208188    -0.000708   -0.000820    0.124995  
      5.208188  3.472125  5.208188    -0.000708   -0.000820    0.124995  
      6.944250  5.208188  5.208188    -0.000708   -0.000820    0.124995  
      8.680312  6.944250  5.208188    -0.000708   -0.000820    0.124995  
      5.208188  1.736063  6.944250    -0.000708   -0.000820    0.124995  
      6.944250  3.472125  6.944250    -0.000708   -0.000820    0.124995  
      8.680312  5.208188  6.944250    -0.000708   -0.000820    0.124995  
     10.416375  6.944250  6.944250    -0.000708   -0.000820    0.124995  
      0.000000  3.472125  3.472125    -0.000708   -0.000820    0.124995  
      1.736063  5.208188  3.472125    -0.000708   -0.000820    0.124995  
      3.472125  6.944250  3.472125    -0.000708   -0.000820    0.124995  
      5.208188  8.680312  3.472125    -0.000708   -0.000820    0.124995  
      1.736063  3.472125  5.208188    -0.000708   -0.000820    0.124995  
      3.472125  5.208188  5.208188    -0.000708   -0.000820    0.124995  
      5.208188  6.944250  5.208188    -0.000708   -0.000820    0.124995  
      6.944250  8.680312  5.208188    -0.000708   -0.000820    0.124995  
      3.472125  3.472125  6.944250    -0.000708   -0.000820    0.124995  
      5.208188  5.208188  6.944250    -0.000708   -0.000820    0.124995  
      6.944250  6.944250  6.944250    -0.000708   -0.000820    0.124995  
      8.680312  8.680312  6.944250    -0.000708   -0.000820    0.124995  
      5.208188  3.472125  8.680312    -0.000708   -0.000820    0.124995  
      6.944250  5.208188  8.680312    -0.000708   -0.000820    0.124995  
      8.680312  6.944250  8.680312    -0.000708   -0.000820    0.124995  
     10.416375  8.680312  8.680312    -0.000708   -0.000820    0.124995  
      0.000000  5.208188  5.208188    -0.000708   -0.000820    0.124995  
      1.736063  6.944250  5.208188    -0.000708   -0.000820    0.124995  
      3.472125  8.680312  5.208188    -0.000708   -0.000820    0.124995  
      5.208188 10.416375  5.208188    -0.000708   -0.000820    0.124995  
      1.736063  5.208188  6.944250    -0.000708   -0.000820    0.124995  
      3.472125  6.944250  6.944250    -0.000708   -0.000820    0.124995  
      5.208188  8.680312  6.944250    -0.000708   -0.000820    0.124995  
      6.944250 10.416375  6.944250    -0.000708   -0.000820    0.124995  
      3.472125  5.208188  8.680312    -0.000708   -0.000820    0.124995  
      5.208188  6.944250  8.680312    -0.000708   -0.000820    0.124995  
      6.944250  8.680312  8.680312    -0.000708   -0.000820    0.124995  
      8.680312 10.416375  8.680312    -0.000708   -0.000820    0.124995  
      5.208188  5.208188 10.416375    -0.000708   -0.000820    0.124995  
      6.944250  6.944250 10.416375    -0.000708   -0.000820    0.124995  
      8.680312  8.680312 10.416375    -0.000708   -0.000820    0.124995  
     10.416375 10.416375 10.416375    -0.000708   -0.000820    0.124995  
 
 192 f  =    0.000002 THz     0.000010 2PiTHz    0.000051 cm-1     0.000006 meV
             X         Y         Z           dx          dy          dz
      0.000000  0.000000  0.000000    -0.081271   -0.094968   -0.001084  
      1.736063  1.736063  0.000000    -0.081271   -0.094968   -0.001084  
      3.472125  3.472125  0.000000    -0.081271   -0.094968   -0.001084  
      5.208188  5.208188  0.000000    -0.081271   -0.094968   -0.001084  
      1.736063  0.000000  1.736063    -0.081271   -0.094968   -0.001084  
      3.472125  1.736063  1.736063    -0.081271   -0.094968   -0.001084  
      5.208188  3.472125  1.736063    -0.081271   -0.094968   -0.001084  
      6.944250  5.208188  1.736063    -0.081271   -0.094968   -0.001084  
      3.472125  0.000000  3.472125    -0.081271   -0.094968   -0.001084  
      5.208188  1.736063  3.472125    -0.081271   -0.094968   -0.001084  
      6.944250  3.472125  3.472125    -0.081271   -0.094968   -0.001084  
      8.680312  5.208188  3.472125    -0.081271   -0.094968   -0.001084  
      5.208188  0.000000  5.208188    -0.081271   -0.094968   -0.001084  
      6.944250  1.736063  5.208188    -0.081271   -0.094968   -0.001084  
      8.680312  3.472125  5.208188    -0.081271   -0.094968   -0.001084  
     10.416375  5.208188  5.208188    -0.081271   -0.094968   -0.001084  
      0.000000  1.736063  1.736063    -0.081271   -0.094968   -0.001084  
      1.736063  3.472125  1.736063    -0.081271   -0.094968   -0.001084  
      3.472125  5.208188  1.736063    -0.081271   -0.094968   -0.001084  
      5.208188  6.944250  1.736063    -0.081271   -0.094968   -0.001084  
      1.736063  1.736063  3.472125    -0.081271   -0.094968   -0.001084  
      3.472125  3.472125  3.472125    -0.081271   -0.094968   -0.001084  
      5.208188  5.208188  3.472125    -0.081271   -0.094968   -0.001084  
      6.944250  6.944250  3.472125    -0.081271   -0.094968   -0.001084  
      3.472125  1.736063  5.208188    -0.081271   -0.094968   -0.001084  
      5.208188  3.472125  5.208188    -0.081271   -0.094968   -0.001084  
      6.944250  5.208188  5.208188    -0.081271   -0.094968   -0.001084  
      8.680312  6.944250  5.208188    -0.081271   -0.094968   -0.001084  
      5.208188  1.736063  6.944250    -0.081271   -0.094968   -0.001084  
      6.944250  3.472125  6.944250    -0.081271   -0.094968   -0.001084  
      8.680312  5.208188  6.944250    -0.081271   -0.094968   -0.001084  
     10.416375  6.944250  6.944250    -0.081271   -0.094968   -0.001084  
      0.000000  3.472125  3.472125    -0.081271   -0.094968   -0.001084  
      1.736063  5.208188  3.472125    -0.081271   -0.094968   -0.001084  
      3.472125  6.944250  3.472125    -0.081271   -0.094968   -0.001084  
      5.208188  8.680312  3.472125    -0.081271   -0.094968   -0.001084  
      1.736063  3.472125  5.208188    -0.081271   -0.094968   -0.001084  
      3.472125  5.208188  5.208188    -0.081271   -0.094968   -0.001084  
      5.208188  6.944250  5.208188    -0.081271   -0.094968   -0.001084  
      6.944250  8.680312  5.208188    -0.081271   -0.094968   -0.001084  
      3.472125  3.472125  6.944250    -0.081271   -0.094968   -0.001084  
      5.208188  5.208188  6.944250    -0.081271   -0.094968   -0.001084  
      6.944250  6.944250  6.944250    -0.081271   -0.094968   -0.001084  
      8.680312  8.680312  6.944250    -0.081271   -0.094968   -0.001084  
      5.208188  3.472125  8.680312    -0.081271   -0.094968   -0.001084  
      6.944250  5.208188  8.680312    -0.081271   -0.094968   -0.001084  
      8.680312  6.944250  8.680312    -0.081271   -0.094968   -0.001084  
     10.416375  8.680312  8.680312    -0.081271   -0.094968   -0.001084  
      0.000000  5.208188  5.208188    -0.081271   -0.094968   -0.001084  
      1.736063  6.944250  5.208188    -0.081271   -0.094968   -0.001084  
      3.472125  8.680312  5.208188    -0.081271   -0.094968   -0.001084  
      5.208188 10.416375  5.208188    -0.081271   -0.094968   -0.001084  
      1.736063  5.208188  6.944250    -0.081271   -0.094968   -0.001084  
      3.472125  6.944250  6.944250    -0.081271   -0.094968   -0.001084  
      5.208188  8.680312  6.944250    -0.081271   -0.094968   -0.001084  
      6.944250 10.416375  6.944250    -0.081271   -0.094968   -0.001084  
      3.472125  5.208188  8.680312    -0.081271   -0.094968   -0.001084  
      5.208188  6.944250  8.680312    -0.081271   -0.094968   -0.001084  
      6.944250  8.680312  8.680312    -0.081271   -0.094968   -0.001084  
      8.680312 10.416375  8.680312    -0.081271   -0.094968   -0.001084  
      5.208188  5.208188 10.416375    -0.081271   -0.094968   -0.001084  
      6.944250  6.944250 10.416375    -0.081271   -0.094968   -0.001084  
      8.680312  8.680312 10.416375    -0.081271   -0.094968   -0.001084  
     10.416375 10.416375 10.416375    -0.081271   -0.094968   -0.001084  
 

 ELASTIC MODULI CONTR FROM IONIC RELAXATION (kBar)
 Direction    XX          YY          ZZ          XY          YZ          ZX
 --------------------------------------------------------------------------------
 XX          -0.0000     -0.0000      0.0000     -0.0000      0.0000     -0.0000
 YY          -0.0000     -0.0000     -0.0000     -0.0000     -0.0000     -0.0000
 ZZ          -0.0000     -0.0000     -0.0000     -0.0000     -0.0000      0.0000
 XY          -0.0000     -0.0000     -0.0000     -0.0000     -0.0000     -0.0000
 YZ          -0.0000     -0.0000     -0.0000     -0.0000     -0.0000     -0.0000
 ZX          -0.0000     -0.0000      0.0000     -0.0000     -0.0000     -0.0000
 --------------------------------------------------------------------------------



--------------------------------------------------------------------------------------------------------


  LATTYP: Found a face centered cubic cell.
 ALAT       =    13.8885000000
  
  Lattice vectors:
  
 A1 = (   0.0000000000,   6.9442500000,   6.9442500000)
 A2 = (   6.9442500000,   0.0000000000,   6.9442500000)
 A3 = (   6.9442500000,   6.9442500000,   0.0000000000)


Analysis of symmetry for initial positions (statically):
=====================================================================
 Subroutine PRICEL returns following result:
 
  LATTYP: Found a face centered cubic cell.
 ALAT       =     3.4721250000
  
  Lattice vectors:
  
 A1 = (   0.0000000000,   1.7360625000,   1.7360625000)
 A2 = (   1.7360625000,   0.0000000000,   1.7360625000)
 A3 = (   1.7360625000,   1.7360625000,   0.0000000000)
 
  64 primitive cells build up your supercell.
 

 Routine SETGRP: Setting up the symmetry group for a 
 face centered cubic supercell.


 Subroutine GETGRP returns: Found 48 space group operations
 (whereof 48 operations were pure point group operations)
 out of a pool of 48 trial point group operations.


The static configuration has the point symmetry O_h .


Analysis of symmetry for dynamics (positions and initial velocities):
=====================================================================
 Subroutine PRICEL returns following result:
 
  LATTYP: Found a face centered cubic cell.
 ALAT       =     3.4721250000
  
  Lattice vectors:
  
 A1 = (   0.0000000000,   1.7360625000,   1.7360625000)
 A2 = (   1.7360625000,   0.0000000000,   1.7360625000)
 A3 = (   1.7360625000,   1.7360625000,   0.0000000000)
 
  64 primitive cells build up your supercell.
 

 Routine SETGRP: Setting up the symmetry group for a 
 face centered cubic supercell.


 Subroutine GETGRP returns: Found 48 space group operations
 (whereof 48 operations were pure point group operations)
 out of a pool of 48 trial point group operations.


The dynamic configuration has the point symmetry O_h .


Analysis of structural, dynamic, and magnetic symmetry:
=====================================================================
 Subroutine PRICEL returns following result:
 
  LATTYP: Found a face centered cubic cell.
 ALAT       =     3.4721250000
  
  Lattice vectors:
  
 A1 = (   0.0000000000,   1.7360625000,   1.7360625000)
 A2 = (   1.7360625000,   0.0000000000,   1.7360625000)
 A3 = (   1.7360625000,   1.7360625000,   0.0000000000)
 
  64 primitive cells build up your supercell.
 

 Routine SETGRP: Setting up the symmetry group for a 
 face centered cubic supercell.


 Subroutine GETGRP returns: Found 48 space group operations
 (whereof 48 operations were pure point group operations)
 out of a pool of 48 trial point group operations.


The magnetic configuration has the point symmetry O_h .


 Subroutine INISYM returns: Found 48 space group operations
 (whereof 48 operations are pure point group operations),
 and found    64 'primitive' translations

 
 KPOINTS: Zr 15x15x15                             

Automatic generation of k-mesh.
Space group operators:
 irot       det(A)        alpha          n_x          n_y          n_z        tau_x        tau_y        tau_z
    1     1.000000     0.000001     1.000000     0.000000     0.000000     0.000000     0.000000     0.000000
    2    -1.000000     0.000001     1.000000     0.000000     0.000000     0.000000     0.000000     0.000000
    3     1.000000   120.000000    -0.577350    -0.577350    -0.577350     0.000000     0.000000     0.000000
    4    -1.000000   120.000000    -0.577350    -0.577350    -0.577350     0.000000     0.000000     0.000000
    5     1.000000   120.000000     0.577350     0.577350     0.577350     0.000000     0.000000     0.000000
    6    -1.000000   120.000000     0.577350     0.577350     0.577350     0.000000     0.000000     0.000000
    7     1.000000    90.000000     0.000000     0.000000    -1.000000     0.000000     0.000000     0.000000
    8    -1.000000    90.000000     0.000000     0.000000    -1.000000     0.000000     0.000000     0.000000
    9     1.000000   180.000000     0.000000     0.707107     0.707107     0.000000     0.000000     0.000000
   10    -1.000000   180.000000     0.000000     0.707107     0.707107     0.000000     0.000000     0.000000
   11     1.000000    90.000000     0.000000     1.000000     0.000000     0.000000     0.000000     0.000000
   12    -1.000000    90.000000     0.000000     1.000000     0.000000     0.000000     0.000000     0.000000
   13     1.000000   180.000000     0.000000     0.000000     1.000000     0.000000     0.000000     0.000000
   14    -1.000000   180.000000     0.000000     0.000000     1.000000     0.000000     0.000000     0.000000
   15     1.000000   120.000000    -0.577350     0.577350     0.577350     0.000000     0.000000     0.000000
   16    -1.000000   120.000000    -0.577350     0.577350     0.577350     0.000000     0.000000     0.000000
   17     1.000000   120.000000    -0.577350     0.577350    -0.577350     0.000000     0.000000     0.000000
   18    -1.000000   120.000000    -0.577350     0.577350    -0.577350     0.000000     0.000000     0.000000
   19     1.000000    90.000000     0.000000     0.000000     1.000000     0.000000     0.000000     0.000000
   20    -1.000000    90.000000     0.000000     0.000000     1.000000     0.000000     0.000000     0.000000
   21     1.000000    90.000000    -1.000000     0.000000     0.000000     0.000000     0.000000     0.000000
   22    -1.000000    90.000000    -1.000000     0.000000     0.000000     0.000000     0.000000     0.000000
   23     1.000000   180.000000     0.707107     0.000000     0.707107     0.000000     0.000000     0.000000
   24    -1.000000   180.000000     0.707107     0.000000     0.707107     0.000000     0.000000     0.000000
   25     1.000000   120.000000     0.577350    -0.577350     0.577350     0.000000     0.000000     0.000000
   26    -1.000000   120.000000     0.577350    -0.577350     0.577350     0.000000     0.000000     0.000000
   27     1.000000   120.000000    -0.577350    -0.577350     0.577350     0.000000     0.000000     0.000000
   28    -1.000000   120.000000    -0.577350    -0.577350     0.577350     0.000000     0.000000     0.000000
   29     1.000000   180.000000     1.000000     0.000000     0.000000     0.000000     0.000000     0.000000
   30    -1.000000   180.000000     1.000000     0.000000     0.000000     0.000000     0.000000     0.000000
   31     1.000000    90.000000     0.000000    -1.000000     0.000000     0.000000     0.000000     0.000000
   32    -1.000000    90.000000     0.000000    -1.000000     0.000000     0.000000     0.000000     0.000000
   33     1.000000   180.000000     0.707107     0.707107     0.000000     0.000000     0.000000     0.000000
   34    -1.000000   180.000000     0.707107     0.707107     0.000000     0.000000     0.000000     0.000000
   35     1.000000    90.000000     1.000000     0.000000     0.000000     0.000000     0.000000     0.000000
   36    -1.000000    90.000000     1.000000     0.000000     0.000000     0.000000     0.000000     0.000000
   37     1.000000   120.000000     0.577350    -0.577350    -0.577350     0.000000     0.000000     0.000000
   38    -1.000000   120.000000     0.577350    -0.577350    -0.577350     0.000000     0.000000     0.000000
   39     1.000000   180.000000     0.000000     1.000000     0.000000     0.000000     0.000000     0.000000
   40    -1.000000   180.000000     0.000000     1.000000     0.000000     0.000000     0.000000     0.000000
   41     1.000000   120.000000     0.577350     0.577350    -0.577350     0.000000     0.000000     0.000000
   42    -1.000000   120.000000     0.577350     0.577350    -0.577350     0.000000     0.000000     0.000000
   43     1.000000   180.000000     0.000000    -0.707107     0.707107     0.000000     0.000000     0.000000
   44    -1.000000   180.000000     0.000000    -0.707107     0.707107     0.000000     0.000000     0.000000
   45     1.000000   180.000000     0.707107    -0.707107     0.000000     0.000000     0.000000     0.000000
   46    -1.000000   180.000000     0.707107    -0.707107     0.000000     0.000000     0.000000     0.000000
   47     1.000000   180.000000     0.707107     0.000000    -0.707107     0.000000     0.000000     0.000000
   48    -1.000000   180.000000     0.707107     0.000000    -0.707107     0.000000     0.000000     0.000000
 
 Subroutine IBZKPT returns following result:
 ===========================================
 
 Found      4 irreducible k-points:
 
 Following reciprocal coordinates:
            Coordinates               Weight
  0.000000  0.000000  0.000000      1.000000
  0.333333  0.000000  0.000000      8.000000
  0.333333  0.333333  0.000000      6.000000
 -0.333333  0.333333  0.000000     12.000000
 
 Following cartesian coordinates:
            Coordinates               Weight
  0.000000  0.000000  0.000000      1.000000
 -0.024001  0.024001  0.024001      8.000000
  0.000000  0.000000  0.048001      6.000000
  0.048001 -0.048001  0.000000     12.000000
 
 writing wavefunctions
     LOOP+:  cpu time 8739.5004: real time 8737.2797
    4ORBIT:  cpu time    0.0000: real time    0.0000

 total amount of memory used by VASP on root node   484004. kBytes
========================================================================

   base      :      30000. kBytes
   nonlr-proj:      40046. kBytes
   fftplans  :      16527. kBytes
   grid      :      59104. kBytes
   one-center:       1990. kBytes
   wavefun   :     336337. kBytes
 
  
  
 General timing and accounting informations for this job:
 ========================================================
  
                  Total CPU time used (sec):    21677.266
                            User time (sec):    20165.228
                          System time (sec):     1512.038
                         Elapsed time (sec):    47589.245
  
                   Maximum memory used (kb):     1196128.
                   Average memory used (kb):           0.
  
                          Minor page faults:       736415
                          Major page faults:            0
                 Voluntary context switches:          953
