<?xml version="1.0" encoding="ISO-8859-1"?>
<modeling>
 <generator>
  <i name="program" type="string">vasp </i>
  <i name="version" type="string">5.4.1  </i>
  <i name="subversion" type="string">05Feb16 (build Oct 12 2016 17:31:35) complex                          parallel </i>
  <i name="platform" type="string">IFC91_ompi </i>
  <i name="date" type="string">2020 09 07 </i>
  <i name="time" type="string">22:42:50 </i>
 </generator>
 <incar>
  <i type="string" name="SYSTEM"> phonon of Zr bcc - omiga</i>
  <i type="string" name="PREC">h</i>
  <i type="int" name="ISPIN">     2</i>
  <i type="int" name="IBRION">     6</i>
  <i name="EDIFF">      0.00000100</i>
  <i type="int" name="NSW">     1</i>
  <v name="MAGMOM">      1.00000000      1.00000000      1.00000000      1.00000000      1.00000000      1.00000000      1.00000000      1.00000000      1.00000000      1.00000000      1.00000000      1.00000000      1.00000000      1.00000000      1.00000000      1.00000000      1.00000000      1.00000000      1.00000000      1.00000000
      1.00000000      1.00000000      1.00000000      1.00000000      1.00000000      1.00000000      1.00000000      1.00000000      1.00000000      1.00000000      1.00000000      1.00000000      1.00000000      1.00000000      1.00000000      1.00000000      1.00000000      1.00000000      1.00000000      1.00000000
      1.00000000      1.00000000      1.00000000      1.00000000      1.00000000      1.00000000      1.00000000      1.00000000      1.00000000      1.00000000      1.00000000      1.00000000      1.00000000      1.00000000      1.00000000      1.00000000      1.00000000      1.00000000      1.00000000      1.00000000
      1.00000000      1.00000000      1.00000000      1.00000000</v>
  <i type="string" name="LREAL">Auto</i>
  <i type="int" name="ISMEAR">     1</i>
  <i type="int" name="NWRITE">     0</i>
  <v type="int" name="KPOINT_BSE">    -1     0     0     0</v>
 </incar>
 <kpoints>
  <generation param="Gamma">
   <v type="int" name="divisions">       3        3        3 </v>
   <v name="usershift">      0.00000000       0.00000000       0.00000000 </v>
   <v name="genvec1">      0.33333333       0.00000000       0.00000000 </v>
   <v name="genvec2">      0.00000000       0.33333333       0.00000000 </v>
   <v name="genvec3">      0.00000000       0.00000000       0.33333333 </v>
   <v name="shift">      0.00000000       0.00000000       0.00000000 </v>
  </generation>
  <varray name="kpointlist" >
   <v>       0.00000000       0.00000000       0.00000000 </v>
   <v>       0.33333333       0.00000000       0.00000000 </v>
   <v>       0.33333333       0.33333333       0.00000000 </v>
   <v>      -0.33333333       0.33333333       0.00000000 </v>
  </varray>
  <varray name="weights" >
   <v>       0.03703704 </v>
   <v>       0.29629630 </v>
   <v>       0.22222222 </v>
   <v>       0.44444444 </v>
  </varray>
 </kpoints>
 <parameters>
  <separator name="general" >
   <i type="string" name="SYSTEM">phonon of Zr bcc - omiga</i>
   <i type="logical" name="LCOMPAT"> F  </i>
  </separator>
  <separator name="electronic" >
   <i type="string" name="PREC">h</i>
   <i name="ENMAX">    459.93125000</i>
   <i name="ENAUG">    703.44300000</i>
   <i name="EDIFF">      0.00000100</i>
   <i type="int" name="IALGO">    38</i>
   <i type="int" name="IWAVPR">    11</i>
   <i type="int" name="NBANDS">   648</i>
   <i name="NELECT">   1024.00000000</i>
   <i type="int" name="TURBO">     0</i>
   <i type="int" name="IRESTART">     0</i>
   <i type="int" name="NREBOOT">     0</i>
   <i type="int" name="NMIN">     0</i>
   <i name="EREF">      0.00000000</i>
   <separator name="electronic smearing" >
    <i type="int" name="ISMEAR">     1</i>
    <i name="SIGMA">      0.20000000</i>
    <i name="KSPACING">      0.50000000</i>
    <i type="logical" name="KGAMMA"> T  </i>
   </separator>
   <separator name="electronic projectors" >
    <i type="logical" name="LREAL"> T  </i>
    <v name="ROPT">     -0.00040000</v>
    <i type="int" name="LMAXPAW">  -100</i>
    <i type="int" name="LMAXMIX">     2</i>
    <i type="logical" name="NLSPLINE"> F  </i>
   </separator>
   <separator name="electronic startup" >
    <i type="int" name="ISTART">     0</i>
    <i type="int" name="ICHARG">     2</i>
    <i type="int" name="INIWAV">     1</i>
   </separator>
   <separator name="electronic spin" >
    <i type="int" name="ISPIN">     2</i>
    <i type="logical" name="LNONCOLLINEAR"> F  </i>
    <v name="MAGMOM">      1.00000000      1.00000000      1.00000000      1.00000000      1.00000000      1.00000000      1.00000000      1.00000000      1.00000000      1.00000000      1.00000000      1.00000000      1.00000000      1.00000000      1.00000000      1.00000000      1.00000000      1.00000000      1.00000000      1.00000000
      1.00000000      1.00000000      1.00000000      1.00000000      1.00000000      1.00000000      1.00000000      1.00000000      1.00000000      1.00000000      1.00000000      1.00000000      1.00000000      1.00000000      1.00000000      1.00000000      1.00000000      1.00000000      1.00000000      1.00000000
      1.00000000      1.00000000      1.00000000      1.00000000      1.00000000      1.00000000      1.00000000      1.00000000      1.00000000      1.00000000      1.00000000      1.00000000      1.00000000      1.00000000      1.00000000      1.00000000      1.00000000      1.00000000      1.00000000      1.00000000
      1.00000000      1.00000000      1.00000000      1.00000000</v>
    <i name="NUPDOWN">     -1.00000000</i>
    <i type="logical" name="LSORBIT"> F  </i>
    <v name="SAXIS">      0.00000000      0.00000000      1.00000000</v>
    <i type="logical" name="LSPIRAL"> F  </i>
    <v name="QSPIRAL">      0.00000000      0.00000000      0.00000000</v>
    <i type="logical" name="LZEROZ"> F  </i>
   </separator>
   <separator name="electronic exchange-correlation" >
    <i type="logical" name="LASPH"> F  </i>
    <i type="logical" name="LMETAGGA"> F  </i>
   </separator>
   <separator name="electronic convergence" >
    <i type="int" name="NELM">    60</i>
    <i type="int" name="NELMDL">     0</i>
    <i type="int" name="NELMIN">     2</i>
    <i name="ENINI">    459.93125000</i>
    <separator name="electronic convergence detail" >
     <i type="logical" name="LDIAG"> T  </i>
     <i type="logical" name="LSUBROT"> F  </i>
     <i name="WEIMIN">      0.00100000</i>
     <i name="EBREAK">      0.00000000</i>
     <i name="DEPER">      0.30000000</i>
     <i type="int" name="NRMM">     4</i>
     <i name="TIME">      0.40000000</i>
    </separator>
   </separator>
   <separator name="electronic mixer" >
    <i name="AMIX">      0.40000000</i>
    <i name="BMIX">      1.00000000</i>
    <i name="AMIN">      0.10000000</i>
    <i name="AMIX_MAG">      1.60000000</i>
    <i name="BMIX_MAG">      1.00000000</i>
    <separator name="electronic mixer details" >
     <i type="int" name="IMIX">     4</i>
     <i type="logical" name="MIXFIRST"> F  </i>
     <i type="int" name="MAXMIX">   -45</i>
     <i name="WC">    100.00000000</i>
     <i type="int" name="INIMIX">     1</i>
     <i type="int" name="MIXPRE">     1</i>
     <i type="int" name="MREMOVE">     5</i>
    </separator>
   </separator>
   <separator name="electronic dipolcorrection" >
    <i type="logical" name="LDIPOL"> F  </i>
    <i type="logical" name="LMONO"> F  </i>
    <i type="int" name="IDIPOL">     0</i>
    <i name="EPSILON">      1.00000000</i>
    <v name="DIPOL">   -100.00000000   -100.00000000   -100.00000000</v>
    <i name="EFIELD">      0.00000000</i>
   </separator>
  </separator>
  <separator name="grids" >
   <i type="int" name="NGX">    70</i>
   <i type="int" name="NGY">    70</i>
   <i type="int" name="NGZ">    70</i>
   <i type="int" name="NGXF">   120</i>
   <i type="int" name="NGYF">   120</i>
   <i type="int" name="NGZF">   120</i>
   <i type="logical" name="ADDGRID"> F  </i>
  </separator>
  <separator name="ionic" >
   <i type="int" name="NSW">   805</i>
   <i type="int" name="IBRION">     6</i>
   <i type="int" name="ISIF">     2</i>
   <i name="PSTRESS">      0.00000000</i>
   <i name="EDIFFG">      0.00001000</i>
   <i type="int" name="NFREE">     2</i>
   <i name="POTIM">      0.50000000</i>
   <i name="SMASS">     -3.00000000</i>
   <i name="SCALEE">      1.00000000</i>
  </separator>
  <separator name="ionic md" >
   <i name="TEBEG">      0.00010000</i>
   <i name="TEEND">      0.00010000</i>
   <i type="int" name="NBLOCK">     1</i>
   <i type="int" name="KBLOCK">     1</i>
   <i type="int" name="NPACO">   256</i>
   <i name="APACO">     16.00000000</i>
  </separator>
  <separator name="symmetry" >
   <i type="int" name="ISYM">     2</i>
   <i name="SYMPREC">      0.00001000</i>
  </separator>
  <separator name="dos" >
   <i type="logical" name="LORBIT"> F  </i>
   <v name="RWIGS">     -1.00000000</v>
   <i type="int" name="NEDOS">   301</i>
   <i name="EMIN">     10.00000000</i>
   <i name="EMAX">    -10.00000000</i>
   <i name="EFERMI">      0.00000000</i>
  </separator>
  <separator name="writing" >
   <i type="int" name="NWRITE">     0</i>
   <i type="logical" name="LWAVE"> T  </i>
   <i type="logical" name="LCHARG"> T  </i>
   <i type="logical" name="LPARD"> F  </i>
   <i type="logical" name="LVTOT"> F  </i>
   <i type="logical" name="LVHAR"> F  </i>
   <i type="logical" name="LELF"> F  </i>
   <i type="logical" name="LOPTICS"> F  </i>
   <v name="STM">      0.00000000      0.00000000      0.00000000      0.00000000      0.00000000      0.00000000      0.00000000</v>
  </separator>
  <separator name="performance" >
   <i type="int" name="NPAR">     4</i>
   <i type="int" name="NSIM">     4</i>
   <i type="int" name="NBLK">    -1</i>
   <i type="logical" name="LPLANE"> T  </i>
   <i type="logical" name="LSCALAPACK"> T  </i>
   <i type="logical" name="LSCAAWARE"> F  </i>
   <i type="logical" name="LSCALU"> F  </i>
   <i type="logical" name="LASYNC"> F  </i>
   <i type="logical" name="LORBITALREAL"> F  </i>
  </separator>
  <separator name="miscellaneous" >
   <i type="int" name="IDIOT">     3</i>
   <i type="logical" name="LMUSIC"> F  </i>
   <v name="POMASS">     58.69000000</v>
   <v name="DARWINR">      0.00000000</v>
   <v name="DARWINV">      1.00000000</v>
   <i type="logical" name="LCORR"> T  </i>
  </separator>
  <i type="logical" name="GGA_COMPAT"> T  </i>
  <i type="logical" name="LBERRY"> F  </i>
  <i type="int" name="ICORELEVEL">     0</i>
  <i type="logical" name="LDAU"> F  </i>
  <i type="int" name="I_CONSTRAINED_M">     0</i>
  <separator name="electronic exchange-correlation" >
   <i type="string" name="GGA">--</i>
   <i type="int" name="VOSKOWN">     0</i>
   <i type="logical" name="LHFCALC"> F  </i>
   <i type="string" name="PRECFOCK"></i>
   <i type="logical" name="LSYMGRAD"> F  </i>
   <i type="logical" name="LHFONE"> F  </i>
   <i type="logical" name="LRHFCALC"> F  </i>
   <i type="logical" name="LTHOMAS"> F  </i>
   <i type="logical" name="LMODELHF"> F  </i>
   <i name="ENCUT4O">     -1.00000000</i>
   <i type="int" name="EXXOEP">     0</i>
   <i type="int" name="FOURORBIT">     0</i>
   <i name="AEXX">      0.00000000</i>
   <i name="HFALPHA">      0.00000000</i>
   <i name="MCALPHA">      0.00000000</i>
   <i name="ALDAX">      1.00000000</i>
   <i name="AGGAX">      1.00000000</i>
   <i name="ALDAC">      1.00000000</i>
   <i name="AGGAC">      1.00000000</i>
   <i type="int" name="NKREDX">     1</i>
   <i type="int" name="NKREDY">     1</i>
   <i type="int" name="NKREDZ">     1</i>
   <i type="logical" name="SHIFTRED"> F  </i>
   <i type="logical" name="ODDONLY"> F  </i>
   <i type="logical" name="EVENONLY"> F  </i>
   <i type="int" name="LMAXFOCK">     0</i>
   <i type="int" name="NMAXFOCKAE">     0</i>
   <i type="logical" name="LFOCKAEDFT"> F  </i>
   <i name="HFSCREEN">      0.00000000</i>
   <i name="HFSCREENC">      0.00000000</i>
   <i type="int" name="NBANDSGWLOW">     0</i>
  </separator>
  <separator name="vdW DFT" >
   <i type="logical" name="LUSE_VDW"> F  </i>
   <i name="Zab_VDW">     -0.84910000</i>
   <i name="PARAM1">      0.12340000</i>
   <i name="PARAM2">      1.00000000</i>
   <i name="PARAM3">      0.00000000</i>
  </separator>
  <separator name="model GW" >
   <i type="int" name="MODEL_GW">     0</i>
   <i name="MODEL_EPS0">      6.27880961</i>
   <i name="MODEL_ALPHA">      1.00000000</i>
  </separator>
  <separator name="linear response parameters" >
   <i type="logical" name="LEPSILON"> F  </i>
   <i type="logical" name="LRPA"> F  </i>
   <i type="logical" name="LNABLA"> F  </i>
   <i type="logical" name="LVEL"> F  </i>
   <i type="int" name="KINTER">     0</i>
   <i name="CSHIFT">      0.10000000</i>
   <i name="OMEGAMAX">     -1.00000000</i>
   <i name="DEG_THRESHOLD">      0.00200000</i>
  </separator>
  <separator name="orbital magnetization" >
   <i type="logical" name="NUCIND"> F  </i>
   <v name="MAGPOS">      0.00000000      0.00000000      0.00000000</v>
   <i type="logical" name="LNICSALL"> T  </i>
   <i type="logical" name="ORBITALMAG"> F  </i>
   <i type="logical" name="LMAGBLOCH"> F  </i>
   <i type="logical" name="LCHIMAG"> F  </i>
   <i type="logical" name="LGAUGE"> T  </i>
   <i type="int" name="MAGATOM">     0</i>
   <v name="MAGDIPOL">      0.00000000      0.00000000      0.00000000</v>
   <v name="AVECCONST">      0.00000000      0.00000000      0.00000000</v>
  </separator>
  <separator name="response functions" >
   <i type="logical" name="LADDER"> F  </i>
   <i type="logical" name="LFXC"> F  </i>
   <i type="logical" name="LHARTREE"> T  </i>
   <i type="int" name="IBSE">     0</i>
   <v type="int" name="KPOINT">    -1     0     0     0</v>
   <i type="logical" name="LTCTE"> F  </i>
   <i type="logical" name="LTETE"> F  </i>
   <i type="logical" name="LTRIPLET"> F  </i>
   <i type="logical" name="LFXCEPS"> F  </i>
   <i type="logical" name="LFXHEG"> F  </i>
   <i type="int" name="NATURALO">     0</i>
   <i type="logical" name="L2ORDER"> F  </i>
   <i type="logical" name="LUSEW"> F  </i>
   <i name="ENCUTGW">     -2.00000000</i>
   <i name="ENCUTGWSOFT">     -2.00000000</i>
   <i name="ENCUTLF">     -1.00000000</i>
   <i type="int" name="LMAXMP2">    -1</i>
   <i name="SCISSOR">      0.00000000</i>
   <i type="int" name="NOMEGA">     0</i>
   <i type="int" name="NOMEGAR">     0</i>
   <i type="int" name="NBANDSGW">    -1</i>
   <i type="int" name="NBANDSO">    -1</i>
   <i type="int" name="NBANDSV">    -1</i>
   <i type="int" name="NELM">     1</i>
   <i type="int" name="NELMHF">     1</i>
   <i type="int" name="DIM">     3</i>
   <i type="int" name="ANTIRES">     0</i>
   <i name="OMEGAMAX">    -30.00000000</i>
   <i name="OMEGAMIN">    -30.00000000</i>
   <i name="OMEGATL">   -200.00000000</i>
   <i type="int" name="OMEGAGRID">     0</i>
   <i name="CSHIFT">     -0.10000000</i>
   <i type="logical" name="SELFENERGY"> F  </i>
   <i type="logical" name="LSPECTRAL"> F  </i>
   <i type="logical" name="LSPECTRALGW"> F  </i>
   <i type="logical" name="LSINGLES"> F  </i>
   <i type="logical" name="LFERMIGW"> F  </i>
   <i type="logical" name="ODDONLYGW"> F  </i>
   <i type="logical" name="EVENONLYGW"> F  </i>
   <i type="int" name="NKREDLFX">     1</i>
   <i type="int" name="NKREDLFY">     1</i>
   <i type="int" name="NKREDLFZ">     1</i>
   <i type="int" name="MAXMEM">  1800</i>
   <i type="int" name="TELESCOPE">     0</i>
   <i type="int" name="TAUPAR">     1</i>
   <i type="int" name="OMEGAPAR">    -1</i>
   <i name="LAMBDA">      1.00000000</i>
  </separator>
  <separator name="External order field" >
   <i name="OFIELD_KAPPA">      0.00000000</i>
   <v name="OFIELD_K">      0.00000000      0.00000000      0.00000000</v>
   <i name="OFIELD_Q6_NEAR">      0.00000000</i>
   <i name="OFIELD_Q6_FAR">      0.00000000</i>
   <i name="OFIELD_A">      0.00000000</i>
  </separator>
 </parameters>
 <atominfo>
  <atoms>      64 </atoms>
  <types>       1 </types>
  <array name="atoms" >
   <dimension dim="1">ion</dimension>
   <field type="string">element</field>
   <field type="int">atomtype</field>
   <set>
    <rc><c>Ni</c><c>   1</c></rc>
    <rc><c>Ni</c><c>   1</c></rc>
    <rc><c>Ni</c><c>   1</c></rc>
    <rc><c>Ni</c><c>   1</c></rc>
    <rc><c>Ni</c><c>   1</c></rc>
    <rc><c>Ni</c><c>   1</c></rc>
    <rc><c>Ni</c><c>   1</c></rc>
    <rc><c>Ni</c><c>   1</c></rc>
    <rc><c>Ni</c><c>   1</c></rc>
    <rc><c>Ni</c><c>   1</c></rc>
    <rc><c>Ni</c><c>   1</c></rc>
    <rc><c>Ni</c><c>   1</c></rc>
    <rc><c>Ni</c><c>   1</c></rc>
    <rc><c>Ni</c><c>   1</c></rc>
    <rc><c>Ni</c><c>   1</c></rc>
    <rc><c>Ni</c><c>   1</c></rc>
    <rc><c>Ni</c><c>   1</c></rc>
    <rc><c>Ni</c><c>   1</c></rc>
    <rc><c>Ni</c><c>   1</c></rc>
    <rc><c>Ni</c><c>   1</c></rc>
    <rc><c>Ni</c><c>   1</c></rc>
    <rc><c>Ni</c><c>   1</c></rc>
    <rc><c>Ni</c><c>   1</c></rc>
    <rc><c>Ni</c><c>   1</c></rc>
    <rc><c>Ni</c><c>   1</c></rc>
    <rc><c>Ni</c><c>   1</c></rc>
    <rc><c>Ni</c><c>   1</c></rc>
    <rc><c>Ni</c><c>   1</c></rc>
    <rc><c>Ni</c><c>   1</c></rc>
    <rc><c>Ni</c><c>   1</c></rc>
    <rc><c>Ni</c><c>   1</c></rc>
    <rc><c>Ni</c><c>   1</c></rc>
    <rc><c>Ni</c><c>   1</c></rc>
    <rc><c>Ni</c><c>   1</c></rc>
    <rc><c>Ni</c><c>   1</c></rc>
    <rc><c>Ni</c><c>   1</c></rc>
    <rc><c>Ni</c><c>   1</c></rc>
    <rc><c>Ni</c><c>   1</c></rc>
    <rc><c>Ni</c><c>   1</c></rc>
    <rc><c>Ni</c><c>   1</c></rc>
    <rc><c>Ni</c><c>   1</c></rc>
    <rc><c>Ni</c><c>   1</c></rc>
    <rc><c>Ni</c><c>   1</c></rc>
    <rc><c>Ni</c><c>   1</c></rc>
    <rc><c>Ni</c><c>   1</c></rc>
    <rc><c>Ni</c><c>   1</c></rc>
    <rc><c>Ni</c><c>   1</c></rc>
    <rc><c>Ni</c><c>   1</c></rc>
    <rc><c>Ni</c><c>   1</c></rc>
    <rc><c>Ni</c><c>   1</c></rc>
    <rc><c>Ni</c><c>   1</c></rc>
    <rc><c>Ni</c><c>   1</c></rc>
    <rc><c>Ni</c><c>   1</c></rc>
    <rc><c>Ni</c><c>   1</c></rc>
    <rc><c>Ni</c><c>   1</c></rc>
    <rc><c>Ni</c><c>   1</c></rc>
    <rc><c>Ni</c><c>   1</c></rc>
    <rc><c>Ni</c><c>   1</c></rc>
    <rc><c>Ni</c><c>   1</c></rc>
    <rc><c>Ni</c><c>   1</c></rc>
    <rc><c>Ni</c><c>   1</c></rc>
    <rc><c>Ni</c><c>   1</c></rc>
    <rc><c>Ni</c><c>   1</c></rc>
    <rc><c>Ni</c><c>   1</c></rc>
   </set>
  </array>
  <array name="atomtypes" >
   <dimension dim="1">type</dimension>
   <field type="int">atomspertype</field>
   <field type="string">element</field>
   <field>mass</field>
   <field>valence</field>
   <field type="string">pseudopotential</field>
   <set>
    <rc><c>  64</c><c>Ni</c><c>     58.69000000</c><c>     16.00000000</c><c> PAW_PBE Ni_pv 06Sep2000                </c></rc>
   </set>
  </array>
 </atominfo>
 <structure name="initialpos" >
  <crystal>
   <varray name="basis" >
    <v>       0.00000000       6.94425000       6.94425000 </v>
    <v>       6.94425000       0.00000000       6.94425000 </v>
    <v>       6.94425000       6.94425000       0.00000000 </v>
   </varray>
   <i name="volume">    669.73969208 </i>
   <varray name="rec_basis" >
    <v>      -0.07200202       0.07200202       0.07200202 </v>
    <v>       0.07200202      -0.07200202       0.07200202 </v>
    <v>       0.07200202       0.07200202      -0.07200202 </v>
   </varray>
  </crystal>
  <varray name="positions" >
   <v>       0.00000000       0.00000000       0.00000000 </v>
   <v>       0.00000000       0.00000000       0.25000000 </v>
   <v>       0.00000000       0.00000000       0.50000000 </v>
   <v>       0.00000000       0.00000000       0.75000000 </v>
   <v>       0.00000000       0.25000000       0.00000000 </v>
   <v>       0.00000000       0.25000000       0.25000000 </v>
   <v>       0.00000000       0.25000000       0.50000000 </v>
   <v>       0.00000000       0.25000000       0.75000000 </v>
   <v>       0.00000000       0.50000000       0.00000000 </v>
   <v>       0.00000000       0.50000000       0.25000000 </v>
   <v>       0.00000000       0.50000000       0.50000000 </v>
   <v>       0.00000000       0.50000000       0.75000000 </v>
   <v>       0.00000000       0.75000000       0.00000000 </v>
   <v>       0.00000000       0.75000000       0.25000000 </v>
   <v>       0.00000000       0.75000000       0.50000000 </v>
   <v>       0.00000000       0.75000000       0.75000000 </v>
   <v>       0.25000000       0.00000000       0.00000000 </v>
   <v>       0.25000000       0.00000000       0.25000000 </v>
   <v>       0.25000000       0.00000000       0.50000000 </v>
   <v>       0.25000000       0.00000000       0.75000000 </v>
   <v>       0.25000000       0.25000000       0.00000000 </v>
   <v>       0.25000000       0.25000000       0.25000000 </v>
   <v>       0.25000000       0.25000000       0.50000000 </v>
   <v>       0.25000000       0.25000000       0.75000000 </v>
   <v>       0.25000000       0.50000000       0.00000000 </v>
   <v>       0.25000000       0.50000000       0.25000000 </v>
   <v>       0.25000000       0.50000000       0.50000000 </v>
   <v>       0.25000000       0.50000000       0.75000000 </v>
   <v>       0.25000000       0.75000000       0.00000000 </v>
   <v>       0.25000000       0.75000000       0.25000000 </v>
   <v>       0.25000000       0.75000000       0.50000000 </v>
   <v>       0.25000000       0.75000000       0.75000000 </v>
   <v>       0.50000000       0.00000000       0.00000000 </v>
   <v>       0.50000000       0.00000000       0.25000000 </v>
   <v>       0.50000000       0.00000000       0.50000000 </v>
   <v>       0.50000000       0.00000000       0.75000000 </v>
   <v>       0.50000000       0.25000000       0.00000000 </v>
   <v>       0.50000000       0.25000000       0.25000000 </v>
   <v>       0.50000000       0.25000000       0.50000000 </v>
   <v>       0.50000000       0.25000000       0.75000000 </v>
   <v>       0.50000000       0.50000000       0.00000000 </v>
   <v>       0.50000000       0.50000000       0.25000000 </v>
   <v>       0.50000000       0.50000000       0.50000000 </v>
   <v>       0.50000000       0.50000000       0.75000000 </v>
   <v>       0.50000000       0.75000000       0.00000000 </v>
   <v>       0.50000000       0.75000000       0.25000000 </v>
   <v>       0.50000000       0.75000000       0.50000000 </v>
   <v>       0.50000000       0.75000000       0.75000000 </v>
   <v>       0.75000000       0.00000000       0.00000000 </v>
   <v>       0.75000000       0.00000000       0.25000000 </v>
   <v>       0.75000000       0.00000000       0.50000000 </v>
   <v>       0.75000000       0.00000000       0.75000000 </v>
   <v>       0.75000000       0.25000000       0.00000000 </v>
   <v>       0.75000000       0.25000000       0.25000000 </v>
   <v>       0.75000000       0.25000000       0.50000000 </v>
   <v>       0.75000000       0.25000000       0.75000000 </v>
   <v>       0.75000000       0.50000000       0.00000000 </v>
   <v>       0.75000000       0.50000000       0.25000000 </v>
   <v>       0.75000000       0.50000000       0.50000000 </v>
   <v>       0.75000000       0.50000000       0.75000000 </v>
   <v>       0.75000000       0.75000000       0.00000000 </v>
   <v>       0.75000000       0.75000000       0.25000000 </v>
   <v>       0.75000000       0.75000000       0.50000000 </v>
   <v>       0.75000000       0.75000000       0.75000000 </v>
  </varray>
 </structure>
 <calculation>
  <scstep>
   <time name="dav">  331.66  331.38</time>
   <time name="total">  332.95  332.68</time>
   <energy>
    <i name="alphaZ">  10302.80525912 </i>
    <i name="ewald">-155767.55935366 </i>
    <i name="hartreedc"> -60457.14383376 </i>
    <i name="XCdc">   5728.73189128 </i>
    <i name="pawpsdc"> 172361.15642774 </i>
    <i name="pawaedc">-181272.45834873 </i>
    <i name="eentropy">     -0.00452208 </i>
    <i name="bandstr">   1194.49527486 </i>
    <i name="atom"> 224016.65216645 </i>
    <i name="e_fr_energy">  16106.67496122 </i>
    <i name="e_wo_entrp">  16106.67948331 </i>
    <i name="e_0_energy">  16106.67646858 </i>
   </energy>
  </scstep>
  <scstep>
   <time name="dav">  305.73  305.48</time>
   <time name="total">  305.76  305.52</time>
   <energy>
    <i name="e_fr_energy">   1193.69056417 </i>
    <i name="e_wo_entrp">   1193.68534364 </i>
    <i name="e_0_energy">   1193.68882399 </i>
   </energy>
  </scstep>
  <scstep>
   <time name="dav">  310.44  310.18</time>
   <time name="total">  310.45  310.20</time>
   <energy>
    <i name="e_fr_energy">   -343.54246452 </i>
    <i name="e_wo_entrp">   -343.61619819 </i>
    <i name="e_0_energy">   -343.56704241 </i>
   </energy>
  </scstep>
  <scstep>
   <time name="dav">  321.45  321.19</time>
   <time name="total">  321.49  321.23</time>
   <energy>
    <i name="e_fr_energy">   -430.75418491 </i>
    <i name="e_wo_entrp">   -430.89142752 </i>
    <i name="e_0_energy">   -430.79993244 </i>
   </energy>
  </scstep>
  <scstep>
   <time name="dav">  323.52  323.25</time>
   <time name="total">  338.56  338.28</time>
   <energy>
    <i name="e_fr_energy">   -432.19630955 </i>
    <i name="e_wo_entrp">   -432.33410893 </i>
    <i name="e_0_energy">   -432.24224267 </i>
   </energy>
  </scstep>
  <scstep>
   <time name="dav">  316.4726235.24</time>
   <time name="total">  332.3226251.08</time>
   <energy>
    <i name="e_fr_energy">   -393.58586805 </i>
    <i name="e_wo_entrp">   -393.28642198 </i>
    <i name="e_0_energy">   -393.48605270 </i>
   </energy>
  </scstep>
  <scstep>
   <time name="dav">  318.68  318.42</time>
   <time name="total">  334.79  334.52</time>
   <energy>
    <i name="e_fr_energy">   -369.51743004 </i>
    <i name="e_wo_entrp">   -369.41131411 </i>
    <i name="e_0_energy">   -369.48205806 </i>
   </energy>
  </scstep>
  <scstep>
   <time name="dav">  326.23  325.96</time>
   <time name="total">  342.14  341.87</time>
   <energy>
    <i name="e_fr_energy">   -369.40665626 </i>
    <i name="e_wo_entrp">   -369.25540099 </i>
    <i name="e_0_energy">   -369.35623784 </i>
   </energy>
  </scstep>
  <scstep>
   <time name="dav">  349.64  349.35</time>
   <time name="total">  365.58  365.29</time>
   <energy>
    <i name="e_fr_energy">   -369.28711327 </i>
    <i name="e_wo_entrp">   -369.10728757 </i>
    <i name="e_0_energy">   -369.22717137 </i>
   </energy>
  </scstep>
  <scstep>
   <time name="dav">  331.72  331.45</time>
   <time name="total">  347.78  347.50</time>
   <energy>
    <i name="e_fr_energy">   -369.29083050 </i>
    <i name="e_wo_entrp">   -369.11093266 </i>
    <i name="e_0_energy">   -369.23086456 </i>
   </energy>
  </scstep>
  <scstep>
   <time name="dav">  328.70  328.43</time>
   <time name="total">  344.92  344.64</time>
   <energy>
    <i name="e_fr_energy">   -369.29295754 </i>
    <i name="e_wo_entrp">   -369.11418055 </i>
    <i name="e_0_energy">   -369.23336521 </i>
   </energy>
  </scstep>
  <scstep>
   <time name="dav">  326.93  326.67</time>
   <time name="total">  342.98  342.71</time>
   <energy>
    <i name="e_fr_energy">   -369.29300957 </i>
    <i name="e_wo_entrp">   -369.11315255 </i>
    <i name="e_0_energy">   -369.23305723 </i>
   </energy>
  </scstep>
  <scstep>
   <time name="dav">  309.11  308.85</time>
   <time name="total">  325.19  324.94</time>
   <energy>
    <i name="e_fr_energy">   -369.29301507 </i>
    <i name="e_wo_entrp">   -369.11278425 </i>
    <i name="e_0_energy">   -369.23293813 </i>
   </energy>
  </scstep>
  <scstep>
   <time name="dav">  282.87  282.66</time>
   <time name="total">  298.97  298.74</time>
   <energy>
    <i name="e_fr_energy">   -369.29299086 </i>
    <i name="e_wo_entrp">   -369.11264406 </i>
    <i name="e_0_energy">   -369.23287526 </i>
   </energy>
  </scstep>
  <scstep>
   <time name="dav">  197.03  196.86</time>
   <time name="total">  213.09  212.93</time>
   <energy>
    <i name="e_fr_energy">   -369.29298605 </i>
    <i name="e_wo_entrp">   -369.11265893 </i>
    <i name="e_0_energy">   -369.23287701 </i>
   </energy>
  </scstep>
  <scstep>
   <time name="dav">  198.30  198.13</time>
   <time name="total">  199.52  199.36</time>
   <energy>
    <i name="alphaZ">  10302.80525912 </i>
    <i name="ewald">-155767.55935366 </i>
    <i name="hartreedc"> -58085.02150156 </i>
    <i name="XCdc">   5637.46063824 </i>
    <i name="pawpsdc"> 172589.37774874 </i>
    <i name="pawaedc">-181662.77675519 </i>
    <i name="eentropy">     -0.18030513 </i>
    <i name="bandstr"> -17400.05088327 </i>
    <i name="atom"> 224016.65216645 </i>
    <i name="e_fr_energy">   -369.29298626 </i>
    <i name="e_wo_entrp">   -369.11268113 </i>
    <i name="e_0_energy">   -369.23288455 </i>
   </energy>
  </scstep>
  <structure>
   <crystal>
    <varray name="basis" >
     <v>       0.00000000       6.94425000       6.94425000 </v>
     <v>       6.94425000       0.00000000       6.94425000 </v>
     <v>       6.94425000       6.94425000       0.00000000 </v>
    </varray>
    <i name="volume">    669.73969208 </i>
    <varray name="rec_basis" >
     <v>      -0.07200202       0.07200202       0.07200202 </v>
     <v>       0.07200202      -0.07200202       0.07200202 </v>
     <v>       0.07200202       0.07200202      -0.07200202 </v>
    </varray>
   </crystal>
   <varray name="positions" >
    <v>       0.00000000       0.00000000       0.00000000 </v>
    <v>       0.00000000       0.00000000       0.25000000 </v>
    <v>       0.00000000       0.00000000       0.50000000 </v>
    <v>       0.00000000       0.00000000       0.75000000 </v>
    <v>       0.00000000       0.25000000       0.00000000 </v>
    <v>       0.00000000       0.25000000       0.25000000 </v>
    <v>       0.00000000       0.25000000       0.50000000 </v>
    <v>       0.00000000       0.25000000       0.75000000 </v>
    <v>       0.00000000       0.50000000       0.00000000 </v>
    <v>       0.00000000       0.50000000       0.25000000 </v>
    <v>       0.00000000       0.50000000       0.50000000 </v>
    <v>       0.00000000       0.50000000       0.75000000 </v>
    <v>       0.00000000       0.75000000       0.00000000 </v>
    <v>       0.00000000       0.75000000       0.25000000 </v>
    <v>       0.00000000       0.75000000       0.50000000 </v>
    <v>       0.00000000       0.75000000       0.75000000 </v>
    <v>       0.25000000       0.00000000       0.00000000 </v>
    <v>       0.25000000       0.00000000       0.25000000 </v>
    <v>       0.25000000       0.00000000       0.50000000 </v>
    <v>       0.25000000       0.00000000       0.75000000 </v>
    <v>       0.25000000       0.25000000       0.00000000 </v>
    <v>       0.25000000       0.25000000       0.25000000 </v>
    <v>       0.25000000       0.25000000       0.50000000 </v>
    <v>       0.25000000       0.25000000       0.75000000 </v>
    <v>       0.25000000       0.50000000       0.00000000 </v>
    <v>       0.25000000       0.50000000       0.25000000 </v>
    <v>       0.25000000       0.50000000       0.50000000 </v>
    <v>       0.25000000       0.50000000       0.75000000 </v>
    <v>       0.25000000       0.75000000       0.00000000 </v>
    <v>       0.25000000       0.75000000       0.25000000 </v>
    <v>       0.25000000       0.75000000       0.50000000 </v>
    <v>       0.25000000       0.75000000       0.75000000 </v>
    <v>       0.50000000       0.00000000       0.00000000 </v>
    <v>       0.50000000       0.00000000       0.25000000 </v>
    <v>       0.50000000       0.00000000       0.50000000 </v>
    <v>       0.50000000       0.00000000       0.75000000 </v>
    <v>       0.50000000       0.25000000       0.00000000 </v>
    <v>       0.50000000       0.25000000       0.25000000 </v>
    <v>       0.50000000       0.25000000       0.50000000 </v>
    <v>       0.50000000       0.25000000       0.75000000 </v>
    <v>       0.50000000       0.50000000       0.00000000 </v>
    <v>       0.50000000       0.50000000       0.25000000 </v>
    <v>       0.50000000       0.50000000       0.50000000 </v>
    <v>       0.50000000       0.50000000       0.75000000 </v>
    <v>       0.50000000       0.75000000       0.00000000 </v>
    <v>       0.50000000       0.75000000       0.25000000 </v>
    <v>       0.50000000       0.75000000       0.50000000 </v>
    <v>       0.50000000       0.75000000       0.75000000 </v>
    <v>       0.75000000       0.00000000       0.00000000 </v>
    <v>       0.75000000       0.00000000       0.25000000 </v>
    <v>       0.75000000       0.00000000       0.50000000 </v>
    <v>       0.75000000       0.00000000       0.75000000 </v>
    <v>       0.75000000       0.25000000       0.00000000 </v>
    <v>       0.75000000       0.25000000       0.25000000 </v>
    <v>       0.75000000       0.25000000       0.50000000 </v>
    <v>       0.75000000       0.25000000       0.75000000 </v>
    <v>       0.75000000       0.50000000       0.00000000 </v>
    <v>       0.75000000       0.50000000       0.25000000 </v>
    <v>       0.75000000       0.50000000       0.50000000 </v>
    <v>       0.75000000       0.50000000       0.75000000 </v>
    <v>       0.75000000       0.75000000       0.00000000 </v>
    <v>       0.75000000       0.75000000       0.25000000 </v>
    <v>       0.75000000       0.75000000       0.50000000 </v>
    <v>       0.75000000       0.75000000       0.75000000 </v>
   </varray>
  </structure>
  <varray name="forces" >
   <v>      -0.00000000       0.00000000      -0.00000000 </v>
   <v>      -0.00000000      -0.00000000      -0.00000000 </v>
   <v>       0.00000000       0.00000000       0.00000000 </v>
   <v>       0.00000000      -0.00000000      -0.00000000 </v>
   <v>      -0.00000000       0.00000000       0.00000000 </v>
   <v>      -0.00000000       0.00000000      -0.00000000 </v>
   <v>      -0.00000000       0.00000000       0.00000000 </v>
   <v>       0.00000000       0.00000000       0.00000000 </v>
   <v>       0.00000000       0.00000000       0.00000000 </v>
   <v>      -0.00000000      -0.00000000      -0.00000000 </v>
   <v>      -0.00000000       0.00000000      -0.00000000 </v>
   <v>      -0.00000000       0.00000000       0.00000000 </v>
   <v>      -0.00000000       0.00000000      -0.00000000 </v>
   <v>      -0.00000000      -0.00000000       0.00000000 </v>
   <v>       0.00000000       0.00000000       0.00000000 </v>
   <v>      -0.00000000      -0.00000000       0.00000000 </v>
   <v>       0.00000000       0.00000000      -0.00000000 </v>
   <v>      -0.00000000       0.00000000      -0.00000000 </v>
   <v>       0.00000000       0.00000000       0.00000000 </v>
   <v>       0.00000000      -0.00000000       0.00000000 </v>
   <v>      -0.00000000      -0.00000000       0.00000000 </v>
   <v>       0.00000000       0.00000000      -0.00000000 </v>
   <v>      -0.00000000      -0.00000000       0.00000000 </v>
   <v>      -0.00000000      -0.00000000       0.00000000 </v>
   <v>      -0.00000000       0.00000000       0.00000000 </v>
   <v>       0.00000000      -0.00000000      -0.00000000 </v>
   <v>       0.00000000      -0.00000000      -0.00000000 </v>
   <v>       0.00000000      -0.00000000      -0.00000000 </v>
   <v>      -0.00000000      -0.00000000      -0.00000000 </v>
   <v>      -0.00000000      -0.00000000      -0.00000000 </v>
   <v>       0.00000000      -0.00000000      -0.00000000 </v>
   <v>       0.00000000       0.00000000       0.00000000 </v>
   <v>       0.00000000       0.00000000      -0.00000000 </v>
   <v>      -0.00000000       0.00000000      -0.00000000 </v>
   <v>       0.00000000       0.00000000       0.00000000 </v>
   <v>       0.00000000      -0.00000000      -0.00000000 </v>
   <v>      -0.00000000      -0.00000000       0.00000000 </v>
   <v>      -0.00000000      -0.00000000      -0.00000000 </v>
   <v>      -0.00000000       0.00000000       0.00000000 </v>
   <v>       0.00000000       0.00000000      -0.00000000 </v>
   <v>       0.00000000       0.00000000       0.00000000 </v>
   <v>      -0.00000000       0.00000000       0.00000000 </v>
   <v>       0.00000000      -0.00000000      -0.00000000 </v>
   <v>       0.00000000       0.00000000      -0.00000000 </v>
   <v>      -0.00000000      -0.00000000      -0.00000000 </v>
   <v>      -0.00000000      -0.00000000      -0.00000000 </v>
   <v>       0.00000000       0.00000000      -0.00000000 </v>
   <v>       0.00000000      -0.00000000       0.00000000 </v>
   <v>       0.00000000       0.00000000      -0.00000000 </v>
   <v>      -0.00000000      -0.00000000      -0.00000000 </v>
   <v>       0.00000000       0.00000000       0.00000000 </v>
   <v>       0.00000000       0.00000000       0.00000000 </v>
   <v>      -0.00000000      -0.00000000       0.00000000 </v>
   <v>      -0.00000000       0.00000000      -0.00000000 </v>
   <v>       0.00000000       0.00000000       0.00000000 </v>
   <v>       0.00000000      -0.00000000       0.00000000 </v>
   <v>       0.00000000      -0.00000000       0.00000000 </v>
   <v>       0.00000000      -0.00000000      -0.00000000 </v>
   <v>       0.00000000       0.00000000       0.00000000 </v>
   <v>       0.00000000      -0.00000000      -0.00000000 </v>
   <v>      -0.00000000      -0.00000000       0.00000000 </v>
   <v>      -0.00000000      -0.00000000       0.00000000 </v>
   <v>      -0.00000000       0.00000000      -0.00000000 </v>
   <v>       0.00000000      -0.00000000       0.00000000 </v>
  </varray>
  <varray name="stress" >
   <v>      85.79504413      -0.00000000       0.00000000 </v>
   <v>      -0.00000000      85.79504413       0.00000000 </v>
   <v>       0.00000000       0.00000000      85.79504413 </v>
  </varray>
  <energy>
   <i name="e_fr_energy">   -369.29298626 </i>
   <i name="e_wo_entrp">   -369.23288455 </i>
   <i name="e_0_energy">     -0.18030513 </i>
  </energy>
  <kpoints>
   <generation param="Gamma">
    <v type="int" name="divisions">       3        3        3 </v>
    <v name="usershift">      0.00000000       0.00000000       0.00000000 </v>
    <v name="genvec1">      0.33333333       0.00000000       0.00000000 </v>
    <v name="genvec2">      0.00000000       0.33333333       0.00000000 </v>
    <v name="genvec3">      0.00000000       0.00000000       0.33333333 </v>
    <v name="shift">      0.00000000       0.00000000       0.00000000 </v>
   </generation>
   <varray name="kpointlist" >
    <v>       0.00000000       0.00000000       0.00000000 </v>
    <v>       0.33333333       0.00000000       0.00000000 </v>
    <v>       0.33333333       0.33333333       0.00000000 </v>
    <v>      -0.33333333       0.33333333       0.00000000 </v>
    <v>       0.00000000       0.33333333       0.33333333 </v>
    <v>      -0.33333333       0.33333333       0.33333333 </v>
   </varray>
   <varray name="weights" >
    <v>       0.03703704 </v>
    <v>       0.29629630 </v>
    <v>       0.14814815 </v>
    <v>       0.29629630 </v>
    <v>       0.07407407 </v>
    <v>       0.14814815 </v>
   </varray>
  </kpoints>
  <time name="totalsc"> 5409.9131328.95</time>
 </calculation>
 <calculation>
  <scstep>
   <time name="dav">  586.70  586.23</time>
   <time name="total">  607.53  607.04</time>
   <energy>
    <i name="alphaZ">  10302.80525912 </i>
    <i name="ewald">-155767.39594914 </i>
    <i name="hartreedc"> -58085.18051460 </i>
    <i name="XCdc">   5637.46169912 </i>
    <i name="pawpsdc"> 172589.16689660 </i>
    <i name="pawaedc">-181662.57394659 </i>
    <i name="eentropy">     -0.18023037 </i>
    <i name="bandstr"> -17399.95233540 </i>
    <i name="atom"> 224016.65216645 </i>
    <i name="e_fr_energy">   -369.19695480 </i>
    <i name="e_wo_entrp">   -369.01672443 </i>
    <i name="e_0_energy">   -369.13687801 </i>
   </energy>
  </scstep>
  <scstep>
   <time name="dav">  483.11  482.71</time>
   <time name="total">  504.32  503.90</time>
   <energy>
    <i name="e_fr_energy">   -369.29165309 </i>
    <i name="e_wo_entrp">   -369.11139264 </i>
    <i name="e_0_energy">   -369.23156627 </i>
   </energy>
  </scstep>
  <scstep>
   <time name="dav">  560.21  559.75</time>
   <time name="total">  581.14  580.67</time>
   <energy>
    <i name="e_fr_energy">   -369.29533299 </i>
    <i name="e_wo_entrp">   -369.11492056 </i>
    <i name="e_0_energy">   -369.23519551 </i>
   </energy>
  </scstep>
  <scstep>
   <time name="dav">  531.89  531.45</time>
   <time name="total">  552.74  552.29</time>
   <energy>
    <i name="e_fr_energy">   -369.29318011 </i>
    <i name="e_wo_entrp">   -369.11289287 </i>
    <i name="e_0_energy">   -369.23308437 </i>
   </energy>
  </scstep>
  <scstep>
   <time name="dav">  505.93  505.51</time>
   <time name="total">  526.93  526.51</time>
   <energy>
    <i name="e_fr_energy">   -369.29205465 </i>
    <i name="e_wo_entrp">   -369.11177069 </i>
    <i name="e_0_energy">   -369.23196000 </i>
   </energy>
  </scstep>
  <scstep>
   <time name="dav">  566.08  565.61</time>
   <time name="total">  586.79  586.32</time>
   <energy>
    <i name="e_fr_energy">   -369.29203898 </i>
    <i name="e_wo_entrp">   -369.11175921 </i>
    <i name="e_0_energy">   -369.23194572 </i>
   </energy>
  </scstep>
  <scstep>
   <time name="dav">  501.09  500.68</time>
   <time name="total">  521.62  521.19</time>
   <energy>
    <i name="e_fr_energy">   -369.29196623 </i>
    <i name="e_wo_entrp">   -369.11169807 </i>
    <i name="e_0_energy">   -369.23187684 </i>
   </energy>
  </scstep>
  <scstep>
   <time name="dav">  519.26  518.83</time>
   <time name="total">  540.00  539.55</time>
   <energy>
    <i name="e_fr_energy">   -369.29194668 </i>
    <i name="e_wo_entrp">   -369.11168404 </i>
    <i name="e_0_energy">   -369.23185913 </i>
   </energy>
  </scstep>
  <scstep>
   <time name="dav">  543.20  542.75</time>
   <time name="total">  564.01  563.54</time>
   <energy>
    <i name="e_fr_energy">   -369.29187830 </i>
    <i name="e_wo_entrp">   -369.11162808 </i>
    <i name="e_0_energy">   -369.23179490 </i>
   </energy>
  </scstep>
  <scstep>
   <time name="dav">  595.56  595.06</time>
   <time name="total">  616.33  615.82</time>
   <energy>
    <i name="e_fr_energy">   -369.29181604 </i>
    <i name="e_wo_entrp">   -369.11156585 </i>
    <i name="e_0_energy">   -369.23173264 </i>
   </energy>
  </scstep>
  <scstep>
   <time name="dav">  608.47  607.97</time>
   <time name="total">  629.50  628.98</time>
   <energy>
    <i name="e_fr_energy">   -369.29182160 </i>
    <i name="e_wo_entrp">   -369.11157272 </i>
    <i name="e_0_energy">   -369.23173864 </i>
   </energy>
  </scstep>
  <scstep>
   <time name="dav">  492.79  492.38</time>
   <time name="total">  513.66  513.24</time>
   <energy>
    <i name="e_fr_energy">   -369.29181690 </i>
    <i name="e_wo_entrp">   -369.11156804 </i>
    <i name="e_0_energy">   -369.23173395 </i>
   </energy>
  </scstep>
  <scstep>
   <time name="dav">  342.10  341.81</time>
   <time name="total">  343.33  343.05</time>
   <energy>
    <i name="alphaZ">  10302.80525912 </i>
    <i name="ewald">-155767.39594914 </i>
    <i name="hartreedc"> -58085.17699825 </i>
    <i name="XCdc">   5637.46138935 </i>
    <i name="pawpsdc"> 172589.11867325 </i>
    <i name="pawaedc">-181662.52286291 </i>
    <i name="eentropy">     -0.18024894 </i>
    <i name="bandstr"> -17400.05324511 </i>
    <i name="atom"> 224016.65216645 </i>
    <i name="e_fr_energy">   -369.29181618 </i>
    <i name="e_wo_entrp">   -369.11156724 </i>
    <i name="e_0_energy">   -369.23173320 </i>
   </energy>
  </scstep>
  <structure>
   <crystal>
    <varray name="basis" >
     <v>       0.00000000       6.94425000       6.94425000 </v>
     <v>       6.94425000       0.00000000       6.94425000 </v>
     <v>       6.94425000       6.94425000       0.00000000 </v>
    </varray>
    <i name="volume">    669.73969208 </i>
    <varray name="rec_basis" >
     <v>      -0.07200202       0.07200202       0.07200202 </v>
     <v>       0.07200202      -0.07200202       0.07200202 </v>
     <v>       0.07200202       0.07200202      -0.07200202 </v>
    </varray>
   </crystal>
   <varray name="positions" >
    <v>      -0.00108003       0.00108003       0.00108003 </v>
    <v>       0.00000000       0.00000000       0.25000000 </v>
    <v>       0.00000000       0.00000000       0.50000000 </v>
    <v>       0.00000000       0.00000000       0.75000000 </v>
    <v>       0.00000000       0.25000000       0.00000000 </v>
    <v>       0.00000000       0.25000000       0.25000000 </v>
    <v>       0.00000000       0.25000000       0.50000000 </v>
    <v>       0.00000000       0.25000000       0.75000000 </v>
    <v>       0.00000000       0.50000000       0.00000000 </v>
    <v>       0.00000000       0.50000000       0.25000000 </v>
    <v>       0.00000000       0.50000000       0.50000000 </v>
    <v>       0.00000000       0.50000000       0.75000000 </v>
    <v>       0.00000000       0.75000000       0.00000000 </v>
    <v>       0.00000000       0.75000000       0.25000000 </v>
    <v>       0.00000000       0.75000000       0.50000000 </v>
    <v>       0.00000000       0.75000000       0.75000000 </v>
    <v>       0.25000000       0.00000000       0.00000000 </v>
    <v>       0.25000000       0.00000000       0.25000000 </v>
    <v>       0.25000000       0.00000000       0.50000000 </v>
    <v>       0.25000000       0.00000000       0.75000000 </v>
    <v>       0.25000000       0.25000000       0.00000000 </v>
    <v>       0.25000000       0.25000000       0.25000000 </v>
    <v>       0.25000000       0.25000000       0.50000000 </v>
    <v>       0.25000000       0.25000000       0.75000000 </v>
    <v>       0.25000000       0.50000000       0.00000000 </v>
    <v>       0.25000000       0.50000000       0.25000000 </v>
    <v>       0.25000000       0.50000000       0.50000000 </v>
    <v>       0.25000000       0.50000000       0.75000000 </v>
    <v>       0.25000000       0.75000000       0.00000000 </v>
    <v>       0.25000000       0.75000000       0.25000000 </v>
    <v>       0.25000000       0.75000000       0.50000000 </v>
    <v>       0.25000000       0.75000000       0.75000000 </v>
    <v>       0.50000000       0.00000000       0.00000000 </v>
    <v>       0.50000000       0.00000000       0.25000000 </v>
    <v>       0.50000000       0.00000000       0.50000000 </v>
    <v>       0.50000000       0.00000000       0.75000000 </v>
    <v>       0.50000000       0.25000000       0.00000000 </v>
    <v>       0.50000000       0.25000000       0.25000000 </v>
    <v>       0.50000000       0.25000000       0.50000000 </v>
    <v>       0.50000000       0.25000000       0.75000000 </v>
    <v>       0.50000000       0.50000000       0.00000000 </v>
    <v>       0.50000000       0.50000000       0.25000000 </v>
    <v>       0.50000000       0.50000000       0.50000000 </v>
    <v>       0.50000000       0.50000000       0.75000000 </v>
    <v>       0.50000000       0.75000000       0.00000000 </v>
    <v>       0.50000000       0.75000000       0.25000000 </v>
    <v>       0.50000000       0.75000000       0.50000000 </v>
    <v>       0.50000000       0.75000000       0.75000000 </v>
    <v>       0.75000000       0.00000000       0.00000000 </v>
    <v>       0.75000000       0.00000000       0.25000000 </v>
    <v>       0.75000000       0.00000000       0.50000000 </v>
    <v>       0.75000000       0.00000000       0.75000000 </v>
    <v>       0.75000000       0.25000000       0.00000000 </v>
    <v>       0.75000000       0.25000000       0.25000000 </v>
    <v>       0.75000000       0.25000000       0.50000000 </v>
    <v>       0.75000000       0.25000000       0.75000000 </v>
    <v>       0.75000000       0.50000000       0.00000000 </v>
    <v>       0.75000000       0.50000000       0.25000000 </v>
    <v>       0.75000000       0.50000000       0.50000000 </v>
    <v>       0.75000000       0.50000000       0.75000000 </v>
    <v>       0.75000000       0.75000000       0.00000000 </v>
    <v>       0.75000000       0.75000000       0.25000000 </v>
    <v>       0.75000000       0.75000000       0.50000000 </v>
    <v>       0.75000000       0.75000000       0.75000000 </v>
   </varray>
  </structure>
  <varray name="forces" >
   <v>      -0.15489318       0.00000000      -0.00000000 </v>
   <v>       0.01944136       0.02256200      -0.00000000 </v>
   <v>      -0.00010735      -0.00000957      -0.00000000 </v>
   <v>       0.01827227       0.02104947      -0.00000000 </v>
   <v>       0.01944136       0.00000000       0.02256200 </v>
   <v>       0.00119517       0.00083466       0.00083466 </v>
   <v>       0.00009785       0.00076680      -0.00033307 </v>
   <v>      -0.00115969      -0.00004547       0.00004547 </v>
   <v>      -0.00010735       0.00000000      -0.00000957 </v>
   <v>       0.00009785      -0.00033307       0.00076680 </v>
   <v>      -0.00013455      -0.00000000      -0.00000000 </v>
   <v>       0.00009003      -0.00031886       0.00091922 </v>
   <v>       0.01827227       0.00000000       0.02104947 </v>
   <v>      -0.00115969       0.00004547      -0.00004547 </v>
   <v>       0.00009003       0.00091922      -0.00031886 </v>
   <v>       0.00102471       0.00083622       0.00083622 </v>
   <v>      -0.00115969       0.00004547       0.00004547 </v>
   <v>       0.00009003       0.00091922       0.00031886 </v>
   <v>       0.00102471       0.00083622      -0.00083622 </v>
   <v>       0.01827227       0.00000000      -0.02104947 </v>
   <v>       0.00009003       0.00031886       0.00091922 </v>
   <v>       0.00017074       0.00000000      -0.00000000 </v>
   <v>       0.00009785       0.00033307      -0.00076680 </v>
   <v>      -0.00080109       0.00000000       0.00014264 </v>
   <v>       0.00102471      -0.00083622       0.00083622 </v>
   <v>       0.00009785      -0.00076680       0.00033307 </v>
   <v>      -0.00042657       0.00007187       0.00007187 </v>
   <v>      -0.00001514       0.00000000       0.00006830 </v>
   <v>       0.01827227      -0.02104947      -0.00000000 </v>
   <v>      -0.00080109       0.00014264      -0.00000000 </v>
   <v>      -0.00001514       0.00006830      -0.00000000 </v>
   <v>       0.00186106       0.00000000      -0.00000000 </v>
   <v>      -0.00013455      -0.00000000      -0.00000000 </v>
   <v>       0.00009003      -0.00031886      -0.00091922 </v>
   <v>      -0.00010735       0.00000000       0.00000957 </v>
   <v>       0.00009785      -0.00033307      -0.00076680 </v>
   <v>       0.00009003      -0.00091922      -0.00031886 </v>
   <v>       0.00119517      -0.00083466      -0.00083466 </v>
   <v>       0.00010102       0.00000000       0.00006851 </v>
   <v>      -0.00042657      -0.00007187       0.00007187 </v>
   <v>      -0.00010735       0.00000957      -0.00000000 </v>
   <v>       0.00010102       0.00006851      -0.00000000 </v>
   <v>      -0.00079846       0.00000000      -0.00000000 </v>
   <v>      -0.00001514      -0.00006830      -0.00000000 </v>
   <v>       0.00009785      -0.00076680      -0.00033307 </v>
   <v>      -0.00042657       0.00007187      -0.00007187 </v>
   <v>      -0.00001514       0.00000000      -0.00006830 </v>
   <v>       0.00102471      -0.00083622      -0.00083622 </v>
   <v>      -0.00115969      -0.00004547      -0.00004547 </v>
   <v>       0.01944136       0.00000000      -0.02256200 </v>
   <v>       0.00119517       0.00083466      -0.00083466 </v>
   <v>       0.00009785       0.00076680       0.00033307 </v>
   <v>       0.01944136      -0.02256200      -0.00000000 </v>
   <v>       0.00215640       0.00000000      -0.00000000 </v>
   <v>       0.00010102      -0.00006851      -0.00000000 </v>
   <v>      -0.00080109      -0.00014264      -0.00000000 </v>
   <v>       0.00119517      -0.00083466       0.00083466 </v>
   <v>       0.00010102       0.00000000      -0.00006851 </v>
   <v>      -0.00042657      -0.00007187      -0.00007187 </v>
   <v>       0.00009003      -0.00091922       0.00031886 </v>
   <v>       0.00009785       0.00033307       0.00076680 </v>
   <v>      -0.00080109       0.00000000      -0.00014264 </v>
   <v>       0.00009003       0.00031886      -0.00091922 </v>
   <v>       0.00017074       0.00000000      -0.00000000 </v>
  </varray>
  <varray name="stress" >
   <v>      85.78827146      -0.00000000       0.00000000 </v>
   <v>       0.00000000      85.77694109      -0.00000000 </v>
   <v>       0.00000000      -0.00000000      85.77694109 </v>
  </varray>
  <energy>
   <i name="e_fr_energy">   -369.29181618 </i>
   <i name="e_wo_entrp">   -369.23173320 </i>
   <i name="e_0_energy">     -0.18024894 </i>
  </energy>
  <kpoints>
   <generation param="Gamma">
    <v type="int" name="divisions">       3        3        3 </v>
    <v name="usershift">      0.00000000       0.00000000       0.00000000 </v>
    <v name="genvec1">      0.33333333       0.00000000       0.00000000 </v>
    <v name="genvec2">      0.00000000       0.33333333       0.00000000 </v>
    <v name="genvec3">      0.00000000       0.00000000       0.33333333 </v>
    <v name="shift">      0.00000000       0.00000000       0.00000000 </v>
   </generation>
   <varray name="kpointlist" >
    <v>       0.00000000       0.00000000       0.00000000 </v>
    <v>       0.33333333       0.00000000       0.00000000 </v>
    <v>       0.33333333       0.33333333       0.00000000 </v>
    <v>      -0.33333333       0.33333333       0.00000000 </v>
    <v>       0.00000000       0.33333333       0.33333333 </v>
    <v>      -0.33333333       0.33333333       0.33333333 </v>
   </varray>
   <varray name="weights" >
    <v>       0.03703704 </v>
    <v>       0.29629630 </v>
    <v>       0.14814815 </v>
    <v>       0.29629630 </v>
    <v>       0.07407407 </v>
    <v>       0.14814815 </v>
   </varray>
  </kpoints>
  <time name="totalsc"> 7466.35 7460.24</time>
 </calculation>
 <calculation>
  <scstep>
   <time name="dav">  581.83  581.35</time>
   <time name="total">  602.92  602.43</time>
   <energy>
    <i name="alphaZ">  10302.80525912 </i>
    <i name="ewald">-155767.39594914 </i>
    <i name="hartreedc"> -58085.21793413 </i>
    <i name="XCdc">   5637.46369132 </i>
    <i name="pawpsdc"> 172589.09242991 </i>
    <i name="pawaedc">-181662.49675234 </i>
    <i name="eentropy">     -0.18022282 </i>
    <i name="bandstr"> -17399.66874232 </i>
    <i name="atom"> 224016.65216645 </i>
    <i name="e_fr_energy">   -368.94605395 </i>
    <i name="e_wo_entrp">   -368.76583113 </i>
    <i name="e_0_energy">   -368.88597968 </i>
   </energy>
  </scstep>
  <scstep>
   <time name="dav">  478.54  478.15</time>
   <time name="total">  499.88  499.46</time>
   <energy>
    <i name="e_fr_energy">   -369.30168360 </i>
    <i name="e_wo_entrp">   -369.12152224 </i>
    <i name="e_0_energy">   -369.24162982 </i>
   </energy>
  </scstep>
  <scstep>
   <time name="dav">  439.96  439.60</time>
   <time name="total">  461.05  460.68</time>
   <energy>
    <i name="e_fr_energy">   -369.29761891 </i>
    <i name="e_wo_entrp">   -369.11705078 </i>
    <i name="e_0_energy">   -369.23742953 </i>
   </energy>
  </scstep>
  <scstep>
   <time name="dav">  544.91  544.46</time>
   <time name="total">  566.00  565.56</time>
   <energy>
    <i name="e_fr_energy">   -369.30108421 </i>
    <i name="e_wo_entrp">   -369.12065737 </i>
    <i name="e_0_energy">   -369.24094193 </i>
   </energy>
  </scstep>
  <scstep>
   <time name="dav">  493.52  493.11</time>
   <time name="total">  514.82  514.40</time>
   <energy>
    <i name="e_fr_energy">   -369.29273089 </i>
    <i name="e_wo_entrp">   -369.11236627 </i>
    <i name="e_0_energy">   -369.23260935 </i>
   </energy>
  </scstep>
  <scstep>
   <time name="dav">  547.38  546.93</time>
   <time name="total">  568.80  568.33</time>
   <energy>
    <i name="e_fr_energy">   -369.29256204 </i>
    <i name="e_wo_entrp">   -369.11221127 </i>
    <i name="e_0_energy">   -369.23244512 </i>
   </energy>
  </scstep>
  <scstep>
   <time name="dav">  505.12  504.71</time>
   <time name="total">  526.17  525.75</time>
   <energy>
    <i name="e_fr_energy">   -369.29235174 </i>
    <i name="e_wo_entrp">   -369.11204530 </i>
    <i name="e_0_energy">   -369.23224959 </i>
   </energy>
  </scstep>
  <scstep>
   <time name="dav">  508.59  508.17</time>
   <time name="total">  529.61  529.18</time>
   <energy>
    <i name="e_fr_energy">   -369.29218463 </i>
    <i name="e_wo_entrp">   -369.11191188 </i>
    <i name="e_0_energy">   -369.23209372 </i>
   </energy>
  </scstep>
  <scstep>
   <time name="dav">  508.00  507.58</time>
   <time name="total">  529.30  528.87</time>
   <energy>
    <i name="e_fr_energy">   -369.29222751 </i>
    <i name="e_wo_entrp">   -369.11198778 </i>
    <i name="e_0_energy">   -369.23214760 </i>
   </energy>
  </scstep>
  <scstep>
   <time name="dav">  573.56  573.09</time>
   <time name="total">  594.81  594.32</time>
   <energy>
    <i name="e_fr_energy">   -369.29187102 </i>
    <i name="e_wo_entrp">   -369.11166200 </i>
    <i name="e_0_energy">   -369.23180134 </i>
   </energy>
  </scstep>
  <scstep>
   <time name="dav">  580.00  579.52</time>
   <time name="total">  601.34  600.84</time>
   <energy>
    <i name="e_fr_energy">   -369.29181597 </i>
    <i name="e_wo_entrp">   -369.11160501 </i>
    <i name="e_0_energy">   -369.23174565 </i>
   </energy>
  </scstep>
  <scstep>
   <time name="dav">  611.02  610.51</time>
   <time name="total">  632.27  631.75</time>
   <energy>
    <i name="e_fr_energy">   -369.29182535 </i>
    <i name="e_wo_entrp">   -369.11160441 </i>
    <i name="e_0_energy">   -369.23175171 </i>
   </energy>
  </scstep>
  <scstep>
   <time name="dav">  489.50  489.10</time>
   <time name="total">  510.50  510.08</time>
   <energy>
    <i name="e_fr_energy">   -369.29181630 </i>
    <i name="e_wo_entrp">   -369.11158911 </i>
    <i name="e_0_energy">   -369.23174057 </i>
   </energy>
  </scstep>
  <scstep>
   <time name="dav">  439.38  439.02</time>
   <time name="total">  460.67  460.30</time>
   <energy>
    <i name="e_fr_energy">   -369.29181982 </i>
    <i name="e_wo_entrp">   -369.11158158 </i>
    <i name="e_0_energy">   -369.23174040 </i>
   </energy>
  </scstep>
  <scstep>
   <time name="dav">  369.55  369.24</time>
   <time name="total">  390.80  390.47</time>
   <energy>
    <i name="e_fr_energy">   -369.29181622 </i>
    <i name="e_wo_entrp">   -369.11156887 </i>
    <i name="e_0_energy">   -369.23173377 </i>
   </energy>
  </scstep>
  <scstep>
   <time name="dav">  294.65  294.40</time>
   <time name="total">  295.96  295.74</time>
   <energy>
    <i name="alphaZ">  10302.80525912 </i>
    <i name="ewald">-155767.39594914 </i>
    <i name="hartreedc"> -58085.16966107 </i>
    <i name="XCdc">   5637.46109789 </i>
    <i name="pawpsdc"> 172589.09536421 </i>
    <i name="pawaedc">-181662.50106971 </i>
    <i name="eentropy">     -0.18024994 </i>
    <i name="bandstr"> -17400.05877449 </i>
    <i name="atom"> 224016.65216645 </i>
    <i name="e_fr_energy">   -369.29181670 </i>
    <i name="e_wo_entrp">   -369.11156675 </i>
    <i name="e_0_energy">   -369.23173338 </i>
   </energy>
  </scstep>
  <structure>
   <crystal>
    <varray name="basis" >
     <v>       0.00000000       6.94425000       6.94425000 </v>
     <v>       6.94425000       0.00000000       6.94425000 </v>
     <v>       6.94425000       6.94425000       0.00000000 </v>
    </varray>
    <i name="volume">    669.73969208 </i>
    <varray name="rec_basis" >
     <v>      -0.07200202       0.07200202       0.07200202 </v>
     <v>       0.07200202      -0.07200202       0.07200202 </v>
     <v>       0.07200202       0.07200202      -0.07200202 </v>
    </varray>
   </crystal>
   <varray name="positions" >
    <v>       0.00108003      -0.00108003      -0.00108003 </v>
    <v>       0.00000000       0.00000000       0.25000000 </v>
    <v>       0.00000000       0.00000000       0.50000000 </v>
    <v>       0.00000000       0.00000000       0.75000000 </v>
    <v>       0.00000000       0.25000000       0.00000000 </v>
    <v>       0.00000000       0.25000000       0.25000000 </v>
    <v>       0.00000000       0.25000000       0.50000000 </v>
    <v>       0.00000000       0.25000000       0.75000000 </v>
    <v>       0.00000000       0.50000000       0.00000000 </v>
    <v>       0.00000000       0.50000000       0.25000000 </v>
    <v>       0.00000000       0.50000000       0.50000000 </v>
    <v>       0.00000000       0.50000000       0.75000000 </v>
    <v>       0.00000000       0.75000000       0.00000000 </v>
    <v>       0.00000000       0.75000000       0.25000000 </v>
    <v>       0.00000000       0.75000000       0.50000000 </v>
    <v>       0.00000000       0.75000000       0.75000000 </v>
    <v>       0.25000000       0.00000000       0.00000000 </v>
    <v>       0.25000000       0.00000000       0.25000000 </v>
    <v>       0.25000000       0.00000000       0.50000000 </v>
    <v>       0.25000000       0.00000000       0.75000000 </v>
    <v>       0.25000000       0.25000000       0.00000000 </v>
    <v>       0.25000000       0.25000000       0.25000000 </v>
    <v>       0.25000000       0.25000000       0.50000000 </v>
    <v>       0.25000000       0.25000000       0.75000000 </v>
    <v>       0.25000000       0.50000000       0.00000000 </v>
    <v>       0.25000000       0.50000000       0.25000000 </v>
    <v>       0.25000000       0.50000000       0.50000000 </v>
    <v>       0.25000000       0.50000000       0.75000000 </v>
    <v>       0.25000000       0.75000000       0.00000000 </v>
    <v>       0.25000000       0.75000000       0.25000000 </v>
    <v>       0.25000000       0.75000000       0.50000000 </v>
    <v>       0.25000000       0.75000000       0.75000000 </v>
    <v>       0.50000000       0.00000000       0.00000000 </v>
    <v>       0.50000000       0.00000000       0.25000000 </v>
    <v>       0.50000000       0.00000000       0.50000000 </v>
    <v>       0.50000000       0.00000000       0.75000000 </v>
    <v>       0.50000000       0.25000000       0.00000000 </v>
    <v>       0.50000000       0.25000000       0.25000000 </v>
    <v>       0.50000000       0.25000000       0.50000000 </v>
    <v>       0.50000000       0.25000000       0.75000000 </v>
    <v>       0.50000000       0.50000000       0.00000000 </v>
    <v>       0.50000000       0.50000000       0.25000000 </v>
    <v>       0.50000000       0.50000000       0.50000000 </v>
    <v>       0.50000000       0.50000000       0.75000000 </v>
    <v>       0.50000000       0.75000000       0.00000000 </v>
    <v>       0.50000000       0.75000000       0.25000000 </v>
    <v>       0.50000000       0.75000000       0.50000000 </v>
    <v>       0.50000000       0.75000000       0.75000000 </v>
    <v>       0.75000000       0.00000000       0.00000000 </v>
    <v>       0.75000000       0.00000000       0.25000000 </v>
    <v>       0.75000000       0.00000000       0.50000000 </v>
    <v>       0.75000000       0.00000000       0.75000000 </v>
    <v>       0.75000000       0.25000000       0.00000000 </v>
    <v>       0.75000000       0.25000000       0.25000000 </v>
    <v>       0.75000000       0.25000000       0.50000000 </v>
    <v>       0.75000000       0.25000000       0.75000000 </v>
    <v>       0.75000000       0.50000000       0.00000000 </v>
    <v>       0.75000000       0.50000000       0.25000000 </v>
    <v>       0.75000000       0.50000000       0.50000000 </v>
    <v>       0.75000000       0.50000000       0.75000000 </v>
    <v>       0.75000000       0.75000000       0.00000000 </v>
    <v>       0.75000000       0.75000000       0.25000000 </v>
    <v>       0.75000000       0.75000000       0.50000000 </v>
    <v>       0.75000000       0.75000000       0.75000000 </v>
   </varray>
  </structure>
  <varray name="forces" >
   <v>       0.15563860       0.00000000       0.00000000 </v>
   <v>      -0.01912318      -0.02214070       0.00000000 </v>
   <v>      -0.00000352       0.00009488       0.00000000 </v>
   <v>      -0.01985203      -0.02321101       0.00000000 </v>
   <v>      -0.01912318       0.00000000      -0.02214070 </v>
   <v>      -0.00112761      -0.00069133      -0.00069133 </v>
   <v>      -0.00005230      -0.00074522       0.00036233 </v>
   <v>       0.00152619       0.00021612      -0.00021612 </v>
   <v>      -0.00000352       0.00000000       0.00009488 </v>
   <v>      -0.00005230       0.00036233      -0.00074522 </v>
   <v>       0.00028855      -0.00000000      -0.00000000 </v>
   <v>       0.00000344       0.00030074      -0.00075455 </v>
   <v>      -0.01985203       0.00000000      -0.02321101 </v>
   <v>       0.00152619      -0.00021612       0.00021612 </v>
   <v>       0.00000344      -0.00075455       0.00030074 </v>
   <v>      -0.00112022      -0.00076076      -0.00076076 </v>
   <v>       0.00152619      -0.00021612      -0.00021612 </v>
   <v>       0.00000344      -0.00075455      -0.00030074 </v>
   <v>      -0.00112022      -0.00076076       0.00076076 </v>
   <v>      -0.01985203       0.00000000       0.02321101 </v>
   <v>       0.00000344      -0.00030074      -0.00075455 </v>
   <v>      -0.00026461      -0.00000000      -0.00000000 </v>
   <v>      -0.00005230      -0.00036233       0.00074522 </v>
   <v>       0.00098031       0.00000000      -0.00003136 </v>
   <v>      -0.00112022       0.00076076      -0.00076076 </v>
   <v>      -0.00005230       0.00074522      -0.00036233 </v>
   <v>       0.00063949      -0.00003199      -0.00003199 </v>
   <v>       0.00008215       0.00000000      -0.00000357 </v>
   <v>      -0.01985203       0.02321101       0.00000000 </v>
   <v>       0.00098031      -0.00003136       0.00000000 </v>
   <v>       0.00008215      -0.00000357       0.00000000 </v>
   <v>      -0.00216308       0.00000000       0.00000000 </v>
   <v>       0.00028855       0.00000000       0.00000000 </v>
   <v>       0.00000344       0.00030074       0.00075455 </v>
   <v>      -0.00000352       0.00000000      -0.00009488 </v>
   <v>      -0.00005230       0.00036233       0.00074522 </v>
   <v>       0.00000344       0.00075455       0.00030074 </v>
   <v>      -0.00112761       0.00069133       0.00069133 </v>
   <v>       0.00001683       0.00000000      -0.00007898 </v>
   <v>       0.00063949       0.00003199      -0.00003199 </v>
   <v>      -0.00000352      -0.00009488       0.00000000 </v>
   <v>       0.00001683      -0.00007898       0.00000000 </v>
   <v>       0.00107582       0.00000000       0.00000000 </v>
   <v>       0.00008215       0.00000357       0.00000000 </v>
   <v>      -0.00005230       0.00074522       0.00036233 </v>
   <v>       0.00063949      -0.00003199       0.00003199 </v>
   <v>       0.00008215       0.00000000       0.00000357 </v>
   <v>      -0.00112022       0.00076076       0.00076076 </v>
   <v>       0.00152619       0.00021612       0.00021612 </v>
   <v>      -0.01912318       0.00000000       0.02214070 </v>
   <v>      -0.00112761      -0.00069133       0.00069133 </v>
   <v>      -0.00005230      -0.00074522      -0.00036233 </v>
   <v>      -0.01912318       0.02214070       0.00000000 </v>
   <v>      -0.00228194       0.00000000       0.00000000 </v>
   <v>       0.00001683       0.00007898       0.00000000 </v>
   <v>       0.00098031       0.00003136       0.00000000 </v>
   <v>      -0.00112761       0.00069133      -0.00069133 </v>
   <v>       0.00001683       0.00000000       0.00007898 </v>
   <v>       0.00063949       0.00003199       0.00003199 </v>
   <v>       0.00000344       0.00075455      -0.00030074 </v>
   <v>      -0.00005230      -0.00036233      -0.00074522 </v>
   <v>       0.00098031       0.00000000       0.00003136 </v>
   <v>       0.00000344      -0.00030074       0.00075455 </v>
   <v>      -0.00026461       0.00000000       0.00000000 </v>
  </varray>
  <varray name="stress" >
   <v>      85.79339919      -0.00000000       0.00000000 </v>
   <v>      -0.00000000      85.79354902       0.00000000 </v>
   <v>       0.00000000       0.00000000      85.79354902 </v>
  </varray>
  <energy>
   <i name="e_fr_energy">   -369.29181670 </i>
   <i name="e_wo_entrp">   -369.23173338 </i>
   <i name="e_0_energy">     -0.18024994 </i>
  </energy>
  <dynmat>
   <varray name="hessian" >
    <v>      -0.17636836       0.00000000       0.00000000       0.02177794       0.02526358      -0.00000000      -0.00005897      -0.00005932      -0.00000000       0.02177794       0.02526358      -0.00000000       0.02177794       0.00000000       0.02526358       0.00126873       0.00089577       0.00089577       0.00006723       0.00089577      -0.00037343      -0.00152546      -0.00000000       0.00000000      -0.00005897      -0.00000000      -0.00005932       0.00006723      -0.00037343       0.00089577      -0.00024030       0.00000000       0.00000000       0.00006723      -0.00037343       0.00089577       0.02177794       0.00000000       0.02526358      -0.00152546       0.00000000       0.00000000       0.00006723       0.00089577      -0.00037343       0.00126873       0.00089577       0.00089577      -0.00152546      -0.00000000      -0.00000000       0.00006723       0.00089577       0.00037343       0.00126873       0.00089577      -0.00089577       0.02177794       0.00000000      -0.02526358       0.00006723       0.00037343       0.00089577       0.00024726       0.00000000      -0.00000000       0.00006723       0.00037343      -0.00089577      -0.00101175       0.00000000       0.00000000       0.00126873      -0.00089577       0.00089577       0.00006723      -0.00089577       0.00037343      -0.00060547       0.00000000      -0.00000000      -0.00000372       0.00000000      -0.00002148       0.02177794      -0.02526358       0.00000000      -0.00101175       0.00000000       0.00000000      -0.00000372      -0.00002148      -0.00000000       0.00240316       0.00000000       0.00000000      -0.00024030      -0.00000000       0.00000000       0.00006723      -0.00037343      -0.00089577      -0.00005897       0.00000000       0.00005932       0.00006723      -0.00037343      -0.00089577       0.00006723      -0.00089577      -0.00037343       0.00126873      -0.00089577      -0.00089577      -0.00000372       0.00000000       0.00002148      -0.00060547       0.00000000       0.00000000      -0.00005897       0.00005932       0.00000000      -0.00000372       0.00002148      -0.00000000      -0.00106451       0.00000000       0.00000000      -0.00000372       0.00002148       0.00000000       0.00006723      -0.00089577      -0.00037343      -0.00060547      -0.00000000      -0.00000000      -0.00000372      -0.00000000       0.00002148       0.00126873      -0.00089577      -0.00089577      -0.00152546      -0.00000000      -0.00000000       0.02177794       0.00000000      -0.02526358       0.00126873       0.00089577      -0.00089577       0.00006723       0.00089577       0.00037343       0.02177794      -0.02526358      -0.00000000       0.00240316      -0.00000000      -0.00000000      -0.00000372      -0.00002148       0.00000000      -0.00101175      -0.00000000       0.00000000       0.00126873      -0.00089577       0.00089577      -0.00000372      -0.00000000      -0.00002148      -0.00060547      -0.00000000       0.00000000       0.00006723      -0.00089577       0.00037343       0.00006723       0.00037343       0.00089577      -0.00101175       0.00000000      -0.00000000       0.00006723       0.00037343      -0.00089577       0.00024726       0.00000000       0.00000000 </v>
    <v>       0.00000000      -0.17636836       0.00000000       0.02526358       0.02177794       0.00000000      -0.00005932      -0.00005897       0.00000000       0.02526358       0.02177794       0.00000000       0.00000000      -0.00152546       0.00000000       0.00089577       0.00006723       0.00037343       0.00089577       0.00126873      -0.00089577       0.00000000       0.02177794      -0.02526358      -0.00000000      -0.00024030      -0.00000000      -0.00037343       0.00006723      -0.00089577       0.00000000      -0.00005897       0.00005932      -0.00037343       0.00006723      -0.00089577       0.00000000      -0.00152546       0.00000000      -0.00000000       0.02177794      -0.02526358       0.00089577       0.00126873      -0.00089577       0.00089577       0.00006723       0.00037343      -0.00000000       0.02177794       0.02526358       0.00089577       0.00126873       0.00089577       0.00089577       0.00006723      -0.00037343       0.00000000      -0.00152546       0.00000000       0.00037343       0.00006723       0.00089577       0.00000000       0.00024726      -0.00000000       0.00037343       0.00006723      -0.00089577       0.00000000      -0.00101175       0.00000000      -0.00089577       0.00006723      -0.00037343      -0.00089577       0.00126873      -0.00089577      -0.00000000      -0.00000372       0.00002148      -0.00000000      -0.00060547      -0.00000000      -0.02526358       0.02177794       0.00000000      -0.00000000       0.00240316      -0.00000000      -0.00002148      -0.00000372      -0.00000000      -0.00000000      -0.00101175       0.00000000      -0.00000000      -0.00005897      -0.00005932      -0.00037343       0.00006723       0.00089577       0.00000000      -0.00024030       0.00000000      -0.00037343       0.00006723       0.00089577      -0.00089577       0.00126873       0.00089577      -0.00089577       0.00006723       0.00037343      -0.00000000      -0.00060547       0.00000000      -0.00000000      -0.00000372      -0.00002148       0.00005932      -0.00005897       0.00000000       0.00002148      -0.00000372       0.00000000       0.00000000      -0.00106451       0.00000000       0.00002148      -0.00000372      -0.00000000      -0.00089577       0.00126873       0.00089577       0.00000000      -0.00000372      -0.00002148       0.00000000      -0.00060547      -0.00000000      -0.00089577       0.00006723       0.00037343      -0.00000000       0.02177794       0.02526358       0.00000000      -0.00152546      -0.00000000       0.00089577       0.00006723      -0.00037343       0.00089577       0.00126873       0.00089577      -0.02526358       0.02177794       0.00000000       0.00000000      -0.00101175       0.00000000      -0.00002148      -0.00000372       0.00000000       0.00000000       0.00240316       0.00000000      -0.00089577       0.00006723      -0.00037343       0.00000000      -0.00060547       0.00000000       0.00000000      -0.00000372       0.00002148      -0.00089577       0.00126873      -0.00089577       0.00037343       0.00006723       0.00089577       0.00000000      -0.00101175      -0.00000000       0.00037343       0.00006723      -0.00089577       0.00000000       0.00024726       0.00000000 </v>
    <v>       0.00000000       0.00000000      -0.17636836      -0.00000000       0.00000000      -0.00152546      -0.00000000       0.00000000      -0.00024030      -0.00000000       0.00000000      -0.00152546       0.02526358       0.00000000       0.02177794       0.00089577       0.00037343       0.00006723      -0.00037343      -0.00089577       0.00006723       0.00000000      -0.02526358       0.02177794      -0.00005932      -0.00000000      -0.00005897       0.00089577      -0.00089577       0.00126873       0.00000000       0.00005932      -0.00005897       0.00089577      -0.00089577       0.00126873       0.02526358       0.00000000       0.02177794       0.00000000      -0.02526358       0.02177794      -0.00037343      -0.00089577       0.00006723       0.00089577       0.00037343       0.00006723      -0.00000000       0.02526358       0.02177794       0.00037343       0.00089577       0.00006723      -0.00089577      -0.00037343       0.00006723      -0.02526358      -0.00000000       0.02177794       0.00089577       0.00089577       0.00126873       0.00000000       0.00000000       0.00024726      -0.00089577      -0.00089577       0.00126873      -0.00000000      -0.00000000       0.00240316       0.00089577      -0.00037343       0.00006723       0.00037343      -0.00089577       0.00006723       0.00000000       0.00002148      -0.00000372      -0.00002148       0.00000000      -0.00000372      -0.00000000       0.00000000      -0.00152546       0.00000000       0.00000000      -0.00101175       0.00000000       0.00000000      -0.00060547      -0.00000000       0.00000000      -0.00101175       0.00000000      -0.00005932      -0.00005897      -0.00089577       0.00089577       0.00126873       0.00005932       0.00000000      -0.00005897      -0.00089577       0.00089577       0.00126873      -0.00037343       0.00089577       0.00006723      -0.00089577       0.00037343       0.00006723       0.00002148      -0.00000000      -0.00000372      -0.00000000      -0.00002148      -0.00000372       0.00000000       0.00000000      -0.00024030       0.00000000      -0.00000000      -0.00060547       0.00000000       0.00000000      -0.00106451      -0.00000000       0.00000000      -0.00060547      -0.00037343       0.00089577       0.00006723       0.00000000      -0.00002148      -0.00000372       0.00002148       0.00000000      -0.00000372      -0.00089577       0.00037343       0.00006723      -0.00000000       0.02526358       0.02177794      -0.02526358       0.00000000       0.02177794      -0.00089577      -0.00037343       0.00006723       0.00037343       0.00089577       0.00006723       0.00000000       0.00000000      -0.00152546       0.00000000       0.00000000      -0.00101175      -0.00000000      -0.00000000      -0.00060547       0.00000000      -0.00000000      -0.00101175       0.00089577      -0.00037343       0.00006723      -0.00002148      -0.00000000      -0.00000372      -0.00000000       0.00002148      -0.00000372       0.00037343      -0.00089577       0.00006723       0.00089577       0.00089577       0.00126873       0.00000000       0.00000000       0.00240316      -0.00089577      -0.00089577       0.00126873      -0.00000000      -0.00000000       0.00024726 </v>
[...]
       <r>    24.1203     0.0000   648.0000 </r>
       <r>    24.4073     0.0000   648.0000 </r>
       <r>    24.6944     0.0000   648.0000 </r>
       <r>    24.9814     0.0000   648.0000 </r>
       <r>    25.2684     0.0000   648.0000 </r>
       <r>    25.5555     0.0000   648.0000 </r>
       <r>    25.8425     0.0000   648.0000 </r>
       <r>    26.1295     0.0000   648.0000 </r>
       <r>    26.4166     0.0000   648.0000 </r>
      </set>
      <set comment="spin 2">
       <r>   -59.6926     0.0000     0.0000 </r>
       <r>   -59.4056     0.0000     0.0000 </r>
       <r>   -59.1185     0.0000     0.0000 </r>
       <r>   -58.8315     0.0000     0.0000 </r>
       <r>   -58.5445     0.0000     0.0000 </r>
       <r>   -58.2574     0.0000     0.0000 </r>
       <r>   -57.9704     0.0000     0.0000 </r>
       <r>   -57.6834     0.0000     0.0000 </r>
       <r>   -57.3963     0.0000     0.0000 </r>
       <r>   -57.1093     0.0000     0.0000 </r>
       <r>   -56.8223     0.0000     0.0000 </r>
       <r>   -56.5353    -0.0000    -0.0000 </r>
       <r>   -56.2482    -0.0000    -0.0000 </r>
       <r>   -55.9612    -0.0000    -0.0000 </r>
       <r>   -55.6742    -0.0000    -0.0000 </r>
       <r>   -55.3871    -0.2362    -0.0678 </r>
       <r>   -55.1001   -13.4529    -3.9292 </r>
       <r>   -54.8131   280.5690    76.6027 </r>
       <r>   -54.5260   417.2615   196.3694 </r>
       <r>   -54.2390   -14.6247   192.1717 </r>
       <r>   -53.9520    -0.5980   192.0000 </r>
       <r>   -53.6649    -0.0001   192.0000 </r>
       <r>   -53.3779    -0.0000   192.0000 </r>
       <r>   -53.0909     0.0000   192.0000 </r>
       <r>   -52.8039     0.0000   192.0000 </r>
       <r>   -52.5168     0.0000   192.0000 </r>
       <r>   -52.2298     0.0000   192.0000 </r>
       <r>   -51.9428     0.0000   192.0000 </r>
       <r>   -51.6557     0.0000   192.0000 </r>
       <r>   -51.3687     0.0000   192.0000 </r>
       <r>   -51.0817     0.0000   192.0000 </r>
       <r>   -50.7946     0.0000   192.0000 </r>
       <r>   -50.5076     0.0000   192.0000 </r>
       <r>   -50.2206     0.0000   192.0000 </r>
       <r>   -49.9336     0.0000   192.0000 </r>
       <r>   -49.6465     0.0000   192.0000 </r>
       <r>   -49.3595     0.0000   192.0000 </r>
       <r>   -49.0725     0.0000   192.0000 </r>
       <r>   -48.7854     0.0000   192.0000 </r>
       <r>   -48.4984     0.0000   192.0000 </r>
       <r>   -48.2114     0.0000   192.0000 </r>
       <r>   -47.9243     0.0000   192.0000 </r>
       <r>   -47.6373     0.0000   192.0000 </r>
       <r>   -47.3503     0.0000   192.0000 </r>
       <r>   -47.0632     0.0000   192.0000 </r>
       <r>   -46.7762     0.0000   192.0000 </r>
       <r>   -46.4892     0.0000   192.0000 </r>
       <r>   -46.2022     0.0000   192.0000 </r>
       <r>   -45.9151     0.0000   192.0000 </r>
       <r>   -45.6281     0.0000   192.0000 </r>
       <r>   -45.3411     0.0000   192.0000 </r>
       <r>   -45.0540     0.0000   192.0000 </r>
       <r>   -44.7670     0.0000   192.0000 </r>
       <r>   -44.4800     0.0000   192.0000 </r>
       <r>   -44.1929     0.0000   192.0000 </r>
       <r>   -43.9059     0.0000   192.0000 </r>
       <r>   -43.6189     0.0000   192.0000 </r>
       <r>   -43.3318     0.0000   192.0000 </r>
       <r>   -43.0448     0.0000   192.0000 </r>
       <r>   -42.7578     0.0000   192.0000 </r>
       <r>   -42.4708     0.0000   192.0000 </r>
       <r>   -42.1837     0.0000   192.0000 </r>
       <r>   -41.8967     0.0000   192.0000 </r>
       <r>   -41.6097     0.0000   192.0000 </r>
       <r>   -41.3226     0.0000   192.0000 </r>
       <r>   -41.0356     0.0000   192.0000 </r>
       <r>   -40.7486     0.0000   192.0000 </r>
       <r>   -40.4615     0.0000   192.0000 </r>
       <r>   -40.1745     0.0000   192.0000 </r>
       <r>   -39.8875     0.0000   192.0000 </r>
       <r>   -39.6005     0.0000   192.0000 </r>
       <r>   -39.3134     0.0000   192.0000 </r>
       <r>   -39.0264     0.0000   192.0000 </r>
       <r>   -38.7394     0.0000   192.0000 </r>
       <r>   -38.4523     0.0000   192.0000 </r>
       <r>   -38.1653     0.0000   192.0000 </r>
       <r>   -37.8783     0.0000   192.0000 </r>
       <r>   -37.5912     0.0000   192.0000 </r>
       <r>   -37.3042     0.0000   192.0000 </r>
       <r>   -37.0172     0.0000   192.0000 </r>
       <r>   -36.7301     0.0000   192.0000 </r>
       <r>   -36.4431     0.0000   192.0000 </r>
       <r>   -36.1561     0.0000   192.0000 </r>
       <r>   -35.8691     0.0000   192.0000 </r>
       <r>   -35.5820     0.0000   192.0000 </r>
       <r>   -35.2950     0.0000   192.0000 </r>
       <r>   -35.0080     0.0000   192.0000 </r>
       <r>   -34.7209     0.0000   192.0000 </r>
       <r>   -34.4339     0.0000   192.0000 </r>
       <r>   -34.1469     0.0000   192.0000 </r>
       <r>   -33.8598     0.0000   192.0000 </r>
       <r>   -33.5728     0.0000   192.0000 </r>
       <r>   -33.2858     0.0000   192.0000 </r>
       <r>   -32.9988     0.0000   192.0000 </r>
       <r>   -32.7117     0.0000   192.0000 </r>
       <r>   -32.4247     0.0000   192.0000 </r>
       <r>   -32.1377     0.0000   192.0000 </r>
       <r>   -31.8506     0.0000   192.0000 </r>
       <r>   -31.5636     0.0000   192.0000 </r>
       <r>   -31.2766     0.0000   192.0000 </r>
       <r>   -30.9895     0.0000   192.0000 </r>
       <r>   -30.7025     0.0000   192.0000 </r>
       <r>   -30.4155     0.0000   192.0000 </r>
       <r>   -30.1284     0.0000   192.0000 </r>
       <r>   -29.8414     0.0000   192.0000 </r>
       <r>   -29.5544     0.0000   192.0000 </r>
       <r>   -29.2674     0.0000   192.0000 </r>
       <r>   -28.9803     0.0000   192.0000 </r>
       <r>   -28.6933     0.0000   192.0000 </r>
       <r>   -28.4063     0.0000   192.0000 </r>
       <r>   -28.1192     0.0000   192.0000 </r>
       <r>   -27.8322     0.0000   192.0000 </r>
       <r>   -27.5452     0.0000   192.0000 </r>
       <r>   -27.2581     0.0000   192.0000 </r>
       <r>   -26.9711     0.0000   192.0000 </r>
       <r>   -26.6841     0.0000   192.0000 </r>
       <r>   -26.3971     0.0000   192.0000 </r>
       <r>   -26.1100     0.0000   192.0000 </r>
       <r>   -25.8230     0.0000   192.0000 </r>
       <r>   -25.5360     0.0000   192.0000 </r>
       <r>   -25.2489     0.0000   192.0000 </r>
       <r>   -24.9619     0.0000   192.0000 </r>
       <r>   -24.6749     0.0000   192.0000 </r>
       <r>   -24.3878     0.0000   192.0000 </r>
       <r>   -24.1008     0.0000   192.0000 </r>
       <r>   -23.8138     0.0000   192.0000 </r>
       <r>   -23.5267     0.0000   192.0000 </r>
       <r>   -23.2397     0.0000   192.0000 </r>
       <r>   -22.9527     0.0000   192.0000 </r>
       <r>   -22.6657     0.0000   192.0000 </r>
       <r>   -22.3786     0.0000   192.0000 </r>
       <r>   -22.0916     0.0000   192.0000 </r>
       <r>   -21.8046     0.0000   192.0000 </r>
       <r>   -21.5175     0.0000   192.0000 </r>
       <r>   -21.2305     0.0000   192.0000 </r>
       <r>   -20.9435     0.0000   192.0000 </r>
       <r>   -20.6564     0.0000   192.0000 </r>
       <r>   -20.3694     0.0000   192.0000 </r>
       <r>   -20.0824     0.0000   192.0000 </r>
       <r>   -19.7954     0.0000   192.0000 </r>
       <r>   -19.5083     0.0000   192.0000 </r>
       <r>   -19.2213     0.0000   192.0000 </r>
       <r>   -18.9343     0.0000   192.0000 </r>
       <r>   -18.6472     0.0000   192.0000 </r>
       <r>   -18.3602     0.0000   192.0000 </r>
       <r>   -18.0732     0.0000   192.0000 </r>
       <r>   -17.7861     0.0000   192.0000 </r>
       <r>   -17.4991     0.0000   192.0000 </r>
       <r>   -17.2121     0.0000   192.0000 </r>
       <r>   -16.9250     0.0000   192.0000 </r>
       <r>   -16.6380     0.0000   192.0000 </r>
       <r>   -16.3510     0.0000   192.0000 </r>
       <r>   -16.0640     0.0000   192.0000 </r>
       <r>   -15.7769     0.0000   192.0000 </r>
       <r>   -15.4899     0.0000   192.0000 </r>
       <r>   -15.2029     0.0000   192.0000 </r>
       <r>   -14.9158     0.0000   192.0000 </r>
       <r>   -14.6288     0.0000   192.0000 </r>
       <r>   -14.3418     0.0000   192.0000 </r>
       <r>   -14.0547     0.0000   192.0000 </r>
       <r>   -13.7677     0.0000   192.0000 </r>
       <r>   -13.4807     0.0000   192.0000 </r>
       <r>   -13.1937     0.0000   192.0000 </r>
       <r>   -12.9066     0.0000   192.0000 </r>
       <r>   -12.6196     0.0000   192.0000 </r>
       <r>   -12.3326     0.0000   192.0000 </r>
       <r>   -12.0455     0.0000   192.0000 </r>
       <r>   -11.7585     0.0000   192.0000 </r>
       <r>   -11.4715     0.0000   192.0000 </r>
       <r>   -11.1844     0.0000   192.0000 </r>
       <r>   -10.8974     0.0000   192.0000 </r>
       <r>   -10.6104     0.0000   192.0000 </r>
       <r>   -10.3233     0.0000   192.0000 </r>
       <r>   -10.0363     0.0000   192.0000 </r>
       <r>    -9.7493     0.0000   192.0000 </r>
       <r>    -9.4623     0.0000   192.0000 </r>
       <r>    -9.1752     0.0000   192.0000 </r>
       <r>    -8.8882     0.0000   192.0000 </r>
       <r>    -8.6012     0.0000   192.0000 </r>
       <r>    -8.3141     0.0000   192.0000 </r>
       <r>    -8.0271     0.0000   192.0000 </r>
       <r>    -7.7401     0.0000   192.0000 </r>
       <r>    -7.4530     0.0000   192.0000 </r>
       <r>    -7.1660     0.0000   192.0000 </r>
       <r>    -6.8790     0.0000   192.0000 </r>
       <r>    -6.5920     0.0000   192.0000 </r>
       <r>    -6.3049     0.0000   192.0000 </r>
       <r>    -6.0179     0.0000   192.0000 </r>
       <r>    -5.7309     0.0000   192.0000 </r>
       <r>    -5.4438     0.0000   192.0000 </r>
       <r>    -5.1568     0.0000   192.0000 </r>
       <r>    -4.8698     0.0000   192.0000 </r>
       <r>    -4.5827     0.0000   192.0000 </r>
       <r>    -4.2957     0.0000   192.0000 </r>
       <r>    -4.0087     0.0000   192.0000 </r>
       <r>    -3.7216     0.0000   192.0000 </r>
       <r>    -3.4346     0.0000   192.0000 </r>
       <r>    -3.1476     0.0000   192.0000 </r>
       <r>    -2.8606    -0.0000   192.0000 </r>
       <r>    -2.5735    -0.0000   192.0000 </r>
       <r>    -2.2865    -0.0000   192.0000 </r>
       <r>    -1.9995    -0.0000   192.0000 </r>
       <r>    -1.7124    -0.0000   192.0000 </r>
       <r>    -1.4254    -0.0007   191.9998 </r>
       <r>    -1.1384    -0.0005   191.9997 </r>
       <r>    -0.8513     0.1620   192.0462 </r>
       <r>    -0.5643     1.5299   192.4853 </r>
       <r>    -0.2773     0.8412   192.7268 </r>
       <r>     0.0097     2.8301   193.5391 </r>
       <r>     0.2968     2.3660   194.2182 </r>
       <r>     0.5838     0.8999   194.4765 </r>
       <r>     0.8708     5.4001   196.0265 </r>
       <r>     1.1579     2.8427   196.8425 </r>
       <r>     1.4449     4.4806   198.1285 </r>
       <r>     1.7319     0.8772   198.3803 </r>
       <r>     2.0190     8.1369   200.7158 </r>
       <r>     2.3060     4.9939   202.1492 </r>
       <r>     2.5930     6.5102   204.0179 </r>
       <r>     2.8801     2.9227   204.8568 </r>
       <r>     3.1671     9.8186   207.6750 </r>
       <r>     3.4541    13.9583   211.6815 </r>
       <r>     3.7411    12.4295   215.2491 </r>
       <r>     4.0282    23.1777   221.9018 </r>
       <r>     4.3152    39.0222   233.1024 </r>
       <r>     4.6022    24.7858   240.2167 </r>
       <r>     4.8893    52.5195   255.2914 </r>
       <r>     5.1763    52.7532   270.4331 </r>
       <r>     5.4633    47.3958   284.0372 </r>
       <r>     5.7504    49.7004   298.3027 </r>
       <r>     6.0374    61.6510   315.9984 </r>
       <r>     6.3244    71.6182   336.5550 </r>
       <r>     6.6115    83.0428   360.3908 </r>
       <r>     6.8985    88.0984   385.6777 </r>
       <r>     7.1855    64.2933   404.1319 </r>
       <r>     7.4725    63.5285   422.3665 </r>
       <r>     7.7596    82.5931   446.0732 </r>
       <r>     8.0466    63.9207   464.4204 </r>
       <r>     8.3336    76.3401   486.3324 </r>
       <r>     8.6207   104.5565   516.3433 </r>
       <r>     8.9077    46.4938   529.6884 </r>
       <r>     9.1947    20.6403   535.6128 </r>
       <r>     9.4818     9.7597   538.4141 </r>
       <r>     9.7688     3.2530   539.3478 </r>
       <r>    10.0558    12.9835   543.0745 </r>
       <r>    10.3428    11.7577   546.4493 </r>
       <r>    10.6299    12.7875   550.1197 </r>
       <r>    10.9169     4.4286   551.3909 </r>
       <r>    11.2039     8.3666   553.7924 </r>
       <r>    11.4910     8.4121   556.2069 </r>
       <r>    11.7780     7.4085   558.3333 </r>
       <r>    12.0650    12.5028   561.9220 </r>
       <r>    12.3521     2.6316   562.6774 </r>
       <r>    12.6391     9.3755   565.3684 </r>
       <r>    12.9261     8.4674   567.7988 </r>
       <r>    13.2132    -0.1792   567.7474 </r>
       <r>    13.5002     1.7420   568.2474 </r>
       <r>    13.7872    11.7680   571.6252 </r>
       <r>    14.0742     2.8962   572.4565 </r>
       <r>    14.3613     2.1676   573.0786 </r>
       <r>    14.6483     6.3231   574.8935 </r>
       <r>    14.9353     7.4586   577.0344 </r>
       <r>    15.2224     7.6188   579.2212 </r>
       <r>    15.5094    10.7677   582.3119 </r>
       <r>    15.7964     7.4469   584.4493 </r>
       <r>    16.0835     7.0894   586.4842 </r>
       <r>    16.3705    11.7317   589.8516 </r>
       <r>    16.6575     7.4303   591.9843 </r>
       <r>    16.9445    11.1300   595.1790 </r>
       <r>    17.2316     8.0416   597.4871 </r>
       <r>    17.5186     6.4667   599.3433 </r>
       <r>    17.8056     6.0177   601.0705 </r>
       <r>    18.0927     6.0537   602.8081 </r>
       <r>    18.3797    10.0721   605.6991 </r>
       <r>    18.6667     4.6968   607.0472 </r>
       <r>    18.9538    13.2976   610.8641 </r>
       <r>    19.2408     6.1796   612.6378 </r>
       <r>    19.5278    13.1630   616.4160 </r>
       <r>    19.8149    18.2206   621.6458 </r>
       <r>    20.1019     9.7661   624.4490 </r>
       <r>    20.3889     9.8355   627.2721 </r>
       <r>    20.6759    13.3150   631.0939 </r>
       <r>    20.9630    12.5473   634.6954 </r>
       <r>    21.2500     1.9169   635.2456 </r>
       <r>    21.5370    14.1845   639.3170 </r>
       <r>    21.8241    13.1311   643.0860 </r>
       <r>    22.1111     9.8883   645.9242 </r>
       <r>    22.3981     3.6170   646.9624 </r>
       <r>    22.6852     3.7176   648.0295 </r>
       <r>    22.9722    -0.0955   648.0021 </r>
       <r>    23.2592    -0.0073   648.0000 </r>
       <r>    23.5462    -0.0000   648.0000 </r>
       <r>    23.8333    -0.0000   648.0000 </r>
       <r>    24.1203     0.0000   648.0000 </r>
       <r>    24.4073     0.0000   648.0000 </r>
       <r>    24.6944     0.0000   648.0000 </r>
       <r>    24.9814     0.0000   648.0000 </r>
       <r>    25.2684     0.0000   648.0000 </r>
       <r>    25.5555     0.0000   648.0000 </r>
       <r>    25.8425     0.0000   648.0000 </r>
       <r>    26.1295     0.0000   648.0000 </r>
       <r>    26.4166     0.0000   648.0000 </r>
      </set>
     </set>
    </array>
   </total>
  </dos>
 </calculation>
 <structure name="finalpos" >
  <crystal>
   <varray name="basis" >
    <v>       0.00000000       6.94425000       6.94425000 </v>
    <v>       6.94425000       0.00000000       6.94425000 </v>
    <v>       6.94425000       6.94425000       0.00000000 </v>
   </varray>
   <i name="volume">    669.73969208 </i>
   <varray name="rec_basis" >
    <v>      -0.07200202       0.07200202       0.07200202 </v>
    <v>       0.07200202      -0.07200202       0.07200202 </v>
    <v>       0.07200202       0.07200202      -0.07200202 </v>
   </varray>
  </crystal>
  <varray name="positions" >
   <v>       0.00108003      -0.00108003      -0.00108003 </v>
   <v>       0.00000000       0.00000000       0.25000000 </v>
   <v>       0.00000000       0.00000000       0.50000000 </v>
   <v>       0.00000000       0.00000000       0.75000000 </v>
   <v>       0.00000000       0.25000000       0.00000000 </v>
   <v>       0.00000000       0.25000000       0.25000000 </v>
   <v>       0.00000000       0.25000000       0.50000000 </v>
   <v>       0.00000000       0.25000000       0.75000000 </v>
   <v>       0.00000000       0.50000000       0.00000000 </v>
   <v>       0.00000000       0.50000000       0.25000000 </v>
   <v>       0.00000000       0.50000000       0.50000000 </v>
   <v>       0.00000000       0.50000000       0.75000000 </v>
   <v>       0.00000000       0.75000000       0.00000000 </v>
   <v>       0.00000000       0.75000000       0.25000000 </v>
   <v>       0.00000000       0.75000000       0.50000000 </v>
   <v>       0.00000000       0.75000000       0.75000000 </v>
   <v>       0.25000000       0.00000000       0.00000000 </v>
   <v>       0.25000000       0.00000000       0.25000000 </v>
   <v>       0.25000000       0.00000000       0.50000000 </v>
   <v>       0.25000000       0.00000000       0.75000000 </v>
   <v>       0.25000000       0.25000000       0.00000000 </v>
   <v>       0.25000000       0.25000000       0.25000000 </v>
   <v>       0.25000000       0.25000000       0.50000000 </v>
   <v>       0.25000000       0.25000000       0.75000000 </v>
   <v>       0.25000000       0.50000000       0.00000000 </v>
   <v>       0.25000000       0.50000000       0.25000000 </v>
   <v>       0.25000000       0.50000000       0.50000000 </v>
   <v>       0.25000000       0.50000000       0.75000000 </v>
   <v>       0.25000000       0.75000000       0.00000000 </v>
   <v>       0.25000000       0.75000000       0.25000000 </v>
   <v>       0.25000000       0.75000000       0.50000000 </v>
   <v>       0.25000000       0.75000000       0.75000000 </v>
   <v>       0.50000000       0.00000000       0.00000000 </v>
   <v>       0.50000000       0.00000000       0.25000000 </v>
   <v>       0.50000000       0.00000000       0.50000000 </v>
   <v>       0.50000000       0.00000000       0.75000000 </v>
   <v>       0.50000000       0.25000000       0.00000000 </v>
   <v>       0.50000000       0.25000000       0.25000000 </v>
   <v>       0.50000000       0.25000000       0.50000000 </v>
   <v>       0.50000000       0.25000000       0.75000000 </v>
   <v>       0.50000000       0.50000000       0.00000000 </v>
   <v>       0.50000000       0.50000000       0.25000000 </v>
   <v>       0.50000000       0.50000000       0.50000000 </v>
   <v>       0.50000000       0.50000000       0.75000000 </v>
   <v>       0.50000000       0.75000000       0.00000000 </v>
   <v>       0.50000000       0.75000000       0.25000000 </v>
   <v>       0.50000000       0.75000000       0.50000000 </v>
   <v>       0.50000000       0.75000000       0.75000000 </v>
   <v>       0.75000000       0.00000000       0.00000000 </v>
   <v>       0.75000000       0.00000000       0.25000000 </v>
   <v>       0.75000000       0.00000000       0.50000000 </v>
   <v>       0.75000000       0.00000000       0.75000000 </v>
   <v>       0.75000000       0.25000000       0.00000000 </v>
   <v>       0.75000000       0.25000000       0.25000000 </v>
   <v>       0.75000000       0.25000000       0.50000000 </v>
   <v>       0.75000000       0.25000000       0.75000000 </v>
   <v>       0.75000000       0.50000000       0.00000000 </v>
   <v>       0.75000000       0.50000000       0.25000000 </v>
   <v>       0.75000000       0.50000000       0.50000000 </v>
   <v>       0.75000000       0.50000000       0.75000000 </v>
   <v>       0.75000000       0.75000000       0.00000000 </v>
   <v>       0.75000000       0.75000000       0.25000000 </v>
   <v>       0.75000000       0.75000000       0.50000000 </v>
   <v>       0.75000000       0.75000000       0.75000000 </v>
  </varray>
 </structure>
</modeling>
