       N       E                     dE             d eps       ncg     rms          rms(c)
DAV:   1     0.142134854760E+05    0.14213E+05   -0.52914E+05 29808   0.196E+03
DAV:   2     0.898717639458E+03   -0.13315E+05   -0.12873E+05 25920   0.653E+02
DAV:   3    -0.362252197305E+03   -0.12610E+04   -0.10476E+04 26632   0.209E+02
DAV:   4    -0.425617834760E+03   -0.63366E+02   -0.62015E+02 27792   0.487E+01
DAV:   5    -0.426545468749E+03   -0.92763E+00   -0.92708E+00 27568   0.542E+00    0.670E+01
DAV:   6    -0.385075430284E+03    0.41470E+02   -0.52358E+02 27320   0.672E+01    0.409E+01
DAV:   7    -0.364660612010E+03    0.20415E+02   -0.87724E+01 27152   0.278E+01    0.597E+00
DAV:   8    -0.364589187922E+03    0.71424E-01   -0.77293E-01 27808   0.190E+00    0.267E+00
DAV:   9    -0.364482684467E+03    0.10650E+00   -0.16314E-01 28048   0.740E-01    0.801E-01
DAV:  10    -0.364485897518E+03   -0.32131E-02   -0.10165E-02 29176   0.191E-01    0.319E-01
DAV:  11    -0.364488644814E+03   -0.27473E-02   -0.36668E-03 28256   0.135E-01    0.930E-02
DAV:  12    -0.364488690855E+03   -0.46041E-04   -0.41918E-04 27704   0.449E-02    0.244E-02
DAV:  13    -0.364488700061E+03   -0.92055E-05   -0.19879E-05 23240   0.875E-03    0.182E-02
DAV:  14    -0.364488673222E+03    0.26839E-04   -0.99898E-06 22784   0.852E-03    0.331E-03
DAV:  15    -0.364488668423E+03    0.47991E-05   -0.49079E-07 13824   0.171E-03    0.933E-04
DAV:  16    -0.364488668811E+03   -0.38877E-06   -0.98176E-08 13680   0.987E-04
   1 F= -.36448867E+03 E0= -.36446267E+03  d E =-.779964E-01  mag=    39.8415
 Found     1 degrees of freedom:
       N       E                     dE             d eps       ncg     rms          rms(c)
DAV:   1    -0.364415594574E+03    0.73074E-01   -0.24369E+00 62216   0.150E+01    0.432E-01
DAV:   2    -0.364487903995E+03   -0.72309E-01   -0.70849E-01 48448   0.159E+00    0.922E-01
DAV:   3    -0.364488792186E+03   -0.88819E-03   -0.23923E-02 55656   0.836E-01    0.743E-01
DAV:   4    -0.364488234513E+03    0.55767E-03   -0.35656E-03 57680   0.451E-01    0.552E-01
DAV:   5    -0.364487382078E+03    0.85244E-03   -0.88201E-04 51016   0.275E-01    0.146E-01
DAV:   6    -0.364487365361E+03    0.16717E-04   -0.17795E-04 58000   0.707E-02    0.131E-01
DAV:   7    -0.364487309439E+03    0.55921E-04   -0.52581E-05 51504   0.565E-02    0.110E-01
DAV:   8    -0.364487297574E+03    0.11865E-04   -0.77863E-05 53112   0.798E-02    0.130E-01
DAV:   9    -0.364487265615E+03    0.31959E-04   -0.12475E-04 58856   0.103E-01    0.122E-01
DAV:  10    -0.364487211986E+03    0.53629E-04   -0.80744E-05 58384   0.744E-02    0.186E-02
DAV:  11    -0.364487217176E+03   -0.51906E-05   -0.19933E-05 61168   0.252E-02    0.414E-02
DAV:  12    -0.364487213492E+03    0.36843E-05   -0.71968E-06 48848   0.203E-02    0.102E-02
DAV:  13    -0.364487213520E+03   -0.27561E-07   -0.10769E-06 24512   0.792E-03
   2 F= -.36448721E+03 E0= -.36446122E+03  d E =-.779803E-01  mag=    39.8414
       N       E                     dE             d eps       ncg     rms          rms(c)
DAV:   1    -0.364226982934E+03    0.26023E+00   -0.78159E+00 62256   0.262E+01    0.845E-01
DAV:   2    -0.364496323645E+03   -0.26934E+00   -0.25607E+00 48704   0.291E+00    0.243E+00
DAV:   3    -0.364490220097E+03    0.61035E-02   -0.11434E-01 55480   0.162E+00    0.104E+00
DAV:   4    -0.364493034701E+03   -0.28146E-02   -0.14729E-02 58880   0.927E-01    0.137E+00
DAV:   5    -0.364487868606E+03    0.51661E-02   -0.53636E-03 50424   0.674E-01    0.324E-01
DAV:   6    -0.364487742905E+03    0.12570E-03   -0.84026E-04 56856   0.164E-01    0.240E-01
DAV:   7    -0.364487583780E+03    0.15912E-03   -0.25411E-04 52144   0.119E-01    0.226E-01
DAV:   8    -0.364487450115E+03    0.13367E-03   -0.28707E-04 52944   0.148E-01    0.212E-01
DAV:   9    -0.364487515572E+03   -0.65457E-04   -0.46750E-04 54432   0.200E-01    0.296E-01
DAV:  10    -0.364487266980E+03    0.24859E-03   -0.38901E-04 56776   0.175E-01    0.152E-01
DAV:  11    -0.364487210702E+03    0.56278E-04   -0.12910E-04 59472   0.796E-02    0.231E-02
DAV:  12    -0.364487215921E+03   -0.52191E-05   -0.28101E-05 52000   0.237E-02    0.322E-02
DAV:  13    -0.364487213784E+03    0.21374E-05   -0.70933E-06 49480   0.209E-02    0.144E-02
DAV:  14    -0.364487214830E+03   -0.10463E-05   -0.21498E-06 29648   0.142E-02    0.227E-02
DAV:  15    -0.364487213452E+03    0.13775E-05   -0.13879E-06 26672   0.119E-02    0.461E-03
DAV:  16    -0.364487213617E+03   -0.16423E-06   -0.55720E-07 24144   0.469E-03
   3 F= -.36448721E+03 E0= -.36446122E+03  d E =-.779810E-01  mag=    39.8414
