 vasp.5.4.1 05Feb16 (build Oct 12 2016 17:31:35) complex                        
  
 executed on           IFC91_ompi date 2020.09.07  22:42:40
 running on    4 total cores
 distrk:  each k-point on    4 cores,    1 groups
 distr:  one band on NCORES_PER_BAND=   1 cores,    4 groups


--------------------------------------------------------------------------------------------------------


 INCAR:
 POTCAR:   PAW_PBE Ni_pv 06Sep2000                
 POTCAR:   PAW_PBE Ni_pv 06Sep2000                
  local pseudopotential read in
  partial core-charges read in
  atomic valenz-charges read in
  non local Contribution for L=           1  read in
    real space projection operators read in
  non local Contribution for L=           1  read in
    real space projection operators read in
  non local Contribution for L=           2  read in
    real space projection operators read in
  non local Contribution for L=           2  read in
    real space projection operators read in
  non local Contribution for L=           0  read in
    real space projection operators read in
  non local Contribution for L=           0  read in
    real space projection operators read in
    PAW grid and wavefunctions read in
 
   number of l-projection  operators is LMAX  =           6
   number of lm-projection operators is LMMAX =          18
 
 Optimization of the real space projectors (new method)

 maximal supplied QI-value         = 18.90
 optimisation between [QCUT,QGAM] = [  9.83, 19.65] = [ 27.04,108.16] Ry 
 Optimized for a Real-space Cutoff    1.44 Angstroem

   l    n(q)    QCUT    max X(q) W(low)/X(q) W(high)/X(q)  e(spline) 
   1      8     9.827     3.231    0.38E-04    0.39E-04    0.57E-07
   1      8     9.827     4.241    0.57E-04    0.19E-03    0.30E-06
   2      7     9.827     3.566    0.29E-04    0.66E-04    0.48E-07
   2      7     9.827    20.429    0.17E-03    0.37E-03    0.30E-06
   0      8     9.827    19.799    0.18E-04    0.76E-05    0.78E-08
   0      8     9.827    52.283    0.39E-04    0.68E-04    0.44E-07
 PAW_PBE Ni_pv 06Sep2000                :
 energy of atom  1       EATOM=-3500.3496
 kinetic energy error for atom=    0.1419 (will be added to EATOM!!)
 
 
 POSCAR: Supercell by Yi Wang                    
  positions in direct lattice
  No initial velocities read in
 exchange correlation table for  LEXCH =        8
   RHO(1)=    0.500       N(1)  =     2000
   RHO(2)=  100.500       N(2)  =     4000
 


--------------------------------------------------------------------------------------------------------


 ion  position               nearest neighbor table
   1  0.000  0.000  0.000-   2 2.42   4 2.42   5 2.42   8 2.42  13 2.42  14 2.42  17 2.42  20 2.42
                            29 2.42  49 2.42  50 2.42  53 2.42
   2  0.000  0.000  0.250-   1 2.42   3 2.42   5 2.42   6 2.42  14 2.42  15 2.42  17 2.42  18 2.42
                            30 2.42  50 2.42  51 2.42  54 2.42
   3  0.000  0.000  0.500-   2 2.42   4 2.42   6 2.42   7 2.42  15 2.42  16 2.42  18 2.42  19 2.42
                            31 2.42  51 2.42  52 2.42  55 2.42
   4  0.000  0.000  0.750-   1 2.42   3 2.42   7 2.42   8 2.42  13 2.42  16 2.42  19 2.42  20 2.42
                            32 2.42  49 2.42  52 2.42  56 2.42
   5  0.000  0.250  0.000-   1 2.42   2 2.42   6 2.42   8 2.42   9 2.42  12 2.42  17 2.42  21 2.42
                            24 2.42  53 2.42  54 2.42  57 2.42
   6  0.000  0.250  0.250-   2 2.42   3 2.42   5 2.42   7 2.42   9 2.42  10 2.42  18 2.42  21 2.42
                            22 2.42  54 2.42  55 2.42  58 2.42
   7  0.000  0.250  0.500-   3 2.42   4 2.42   6 2.42   8 2.42  10 2.42  11 2.42  19 2.42  22 2.42
                            23 2.42  55 2.42  56 2.42  59 2.42
   8  0.000  0.250  0.750-   1 2.42   4 2.42   5 2.42   7 2.42  11 2.42  12 2.42  20 2.42  23 2.42
                            24 2.42  53 2.42  56 2.42  60 2.42
   9  0.000  0.500  0.000-   5 2.42   6 2.42  10 2.42  12 2.42  13 2.42  16 2.42  21 2.42  25 2.42
                            28 2.42  57 2.42  58 2.42  61 2.42
  10  0.000  0.500  0.250-   6 2.42   7 2.42   9 2.42  11 2.42  13 2.42  14 2.42  22 2.42  25 2.42
                            26 2.42  58 2.42  59 2.42  62 2.42
  11  0.000  0.500  0.500-   7 2.42   8 2.42  10 2.42  12 2.42  14 2.42  15 2.42  23 2.42  26 2.42
                            27 2.42  59 2.42  60 2.42  63 2.42
  12  0.000  0.500  0.750-   5 2.42   8 2.42   9 2.42  11 2.42  15 2.42  16 2.42  24 2.42  27 2.42
                            28 2.42  57 2.42  60 2.42  64 2.42
  13  0.000  0.750  0.000-   1 2.42   4 2.42   9 2.42  10 2.42  14 2.42  16 2.42  25 2.42  29 2.42
                            32 2.42  49 2.42  61 2.42  62 2.42
  14  0.000  0.750  0.250-   1 2.42   2 2.42  10 2.42  11 2.42  13 2.42  15 2.42  26 2.42  29 2.42
                            30 2.42  50 2.42  62 2.42  63 2.42
  15  0.000  0.750  0.500-   2 2.42   3 2.42  11 2.42  12 2.42  14 2.42  16 2.42  27 2.42  30 2.42
                            31 2.42  51 2.42  63 2.42  64 2.42
  16  0.000  0.750  0.750-   3 2.42   4 2.42   9 2.42  12 2.42  13 2.42  15 2.42  28 2.42  31 2.42
                            32 2.42  52 2.42  61 2.42  64 2.42
  17  0.250  0.000  0.000-   1 2.42   2 2.42   5 2.42  18 2.42  20 2.42  21 2.42  24 2.42  29 2.42
                            30 2.42  33 2.42  36 2.42  45 2.42
  18  0.250  0.000  0.250-   2 2.42   3 2.42   6 2.42  17 2.42  19 2.42  21 2.42  22 2.42  30 2.42
                            31 2.42  33 2.42  34 2.42  46 2.42
  19  0.250  0.000  0.500-   3 2.42   4 2.42   7 2.42  18 2.42  20 2.42  22 2.42  23 2.42  31 2.42
                            32 2.42  34 2.42  35 2.42  47 2.42
  20  0.250  0.000  0.750-   1 2.42   4 2.42   8 2.42  17 2.42  19 2.42  23 2.42  24 2.42  29 2.42
                            32 2.42  35 2.42  36 2.42  48 2.42
  21  0.250  0.250  0.000-   5 2.42   6 2.42   9 2.42  17 2.42  18 2.42  22 2.42  24 2.42  25 2.42
                            28 2.42  33 2.42  37 2.42  40 2.42
  22  0.250  0.250  0.250-   6 2.42   7 2.42  10 2.42  18 2.42  19 2.42  21 2.42  23 2.42  25 2.42
                            26 2.42  34 2.42  37 2.42  38 2.42
  23  0.250  0.250  0.500-   7 2.42   8 2.42  11 2.42  19 2.42  20 2.42  22 2.42  24 2.42  26 2.42
                            27 2.42  35 2.42  38 2.42  39 2.42
  24  0.250  0.250  0.750-   5 2.42   8 2.42  12 2.42  17 2.42  20 2.42  21 2.42  23 2.42  27 2.42
                            28 2.42  36 2.42  39 2.42  40 2.42
  25  0.250  0.500  0.000-   9 2.42  10 2.42  13 2.42  21 2.42  22 2.42  26 2.42  28 2.42  29 2.42
                            32 2.42  37 2.42  41 2.42  44 2.42
  26  0.250  0.500  0.250-  10 2.42  11 2.42  14 2.42  22 2.42  23 2.42  25 2.42  27 2.42  29 2.42
                            30 2.42  38 2.42  41 2.42  42 2.42
  27  0.250  0.500  0.500-  11 2.42  12 2.42  15 2.42  23 2.42  24 2.42  26 2.42  28 2.42  30 2.42
                            31 2.42  39 2.42  42 2.42  43 2.42
  28  0.250  0.500  0.750-   9 2.42  12 2.42  16 2.42  21 2.42  24 2.42  25 2.42  27 2.42  31 2.42
                            32 2.42  40 2.42  43 2.42  44 2.42
  29  0.250  0.750  0.000-   1 2.42  13 2.42  14 2.42  17 2.42  20 2.42  25 2.42  26 2.42  30 2.42
                            32 2.42  41 2.42  45 2.42  48 2.42
  30  0.250  0.750  0.250-   2 2.42  14 2.42  15 2.42  17 2.42  18 2.42  26 2.42  27 2.42  29 2.42
                            31 2.42  42 2.42  45 2.42  46 2.42
  31  0.250  0.750  0.500-   3 2.42  15 2.42  16 2.42  18 2.42  19 2.42  27 2.42  28 2.42  30 2.42
                            32 2.42  43 2.42  46 2.42  47 2.42
  32  0.250  0.750  0.750-   4 2.42  13 2.42  16 2.42  19 2.42  20 2.42  25 2.42  28 2.42  29 2.42
                            31 2.42  44 2.42  47 2.42  48 2.42
  33  0.500  0.000  0.000-  17 2.42  18 2.42  21 2.42  34 2.42  36 2.42  37 2.42  40 2.42  45 2.42
                            46 2.42  49 2.42  52 2.42  61 2.42
  34  0.500  0.000  0.250-  18 2.42  19 2.42  22 2.42  33 2.42  35 2.42  37 2.42  38 2.42  46 2.42
                            47 2.42  49 2.42  50 2.42  62 2.42
  35  0.500  0.000  0.500-  19 2.42  20 2.42  23 2.42  34 2.42  36 2.42  38 2.42  39 2.42  47 2.42
                            48 2.42  50 2.42  51 2.42  63 2.42
  36  0.500  0.000  0.750-  17 2.42  20 2.42  24 2.42  33 2.42  35 2.42  39 2.42  40 2.42  45 2.42
                            48 2.42  51 2.42  52 2.42  64 2.42
  37  0.500  0.250  0.000-  21 2.42  22 2.42  25 2.42  33 2.42  34 2.42  38 2.42  40 2.42  41 2.42
                            44 2.42  49 2.42  53 2.42  56 2.42
  38  0.500  0.250  0.250-  22 2.42  23 2.42  26 2.42  34 2.42  35 2.42  37 2.42  39 2.42  41 2.42
                            42 2.42  50 2.42  53 2.42  54 2.42
  39  0.500  0.250  0.500-  23 2.42  24 2.42  27 2.42  35 2.42  36 2.42  38 2.42  40 2.42  42 2.42
                            43 2.42  51 2.42  54 2.42  55 2.42
  40  0.500  0.250  0.750-  21 2.42  24 2.42  28 2.42  33 2.42  36 2.42  37 2.42  39 2.42  43 2.42
                            44 2.42  52 2.42  55 2.42  56 2.42
  41  0.500  0.500  0.000-  25 2.42  26 2.42  29 2.42  37 2.42  38 2.42  42 2.42  44 2.42  45 2.42
                            48 2.42  53 2.42  57 2.42  60 2.42
  42  0.500  0.500  0.250-  26 2.42  27 2.42  30 2.42  38 2.42  39 2.42  41 2.42  43 2.42  45 2.42
                            46 2.42  54 2.42  57 2.42  58 2.42
  43  0.500  0.500  0.500-  27 2.42  28 2.42  31 2.42  39 2.42  40 2.42  42 2.42  44 2.42  46 2.42
                            47 2.42  55 2.42  58 2.42  59 2.42
  44  0.500  0.500  0.750-  25 2.42  28 2.42  32 2.42  37 2.42  40 2.42  41 2.42  43 2.42  47 2.42
                            48 2.42  56 2.42  59 2.42  60 2.42
  45  0.500  0.750  0.000-  17 2.42  29 2.42  30 2.42  33 2.42  36 2.42  41 2.42  42 2.42  46 2.42
                            48 2.42  57 2.42  61 2.42  64 2.42
  46  0.500  0.750  0.250-  18 2.42  30 2.42  31 2.42  33 2.42  34 2.42  42 2.42  43 2.42  45 2.42
                            47 2.42  58 2.42  61 2.42  62 2.42
  47  0.500  0.750  0.500-  19 2.42  31 2.42  32 2.42  34 2.42  35 2.42  43 2.42  44 2.42  46 2.42
                            48 2.42  59 2.42  62 2.42  63 2.42
  48  0.500  0.750  0.750-  20 2.42  29 2.42  32 2.42  35 2.42  36 2.42  41 2.42  44 2.42  45 2.42
                            47 2.42  60 2.42  63 2.42  64 2.42
  49  0.750  0.000  0.000-   1 2.42   4 2.42  13 2.42  33 2.42  34 2.42  37 2.42  50 2.42  52 2.42
                            53 2.42  56 2.42  61 2.42  62 2.42
  50  0.750  0.000  0.250-   1 2.42   2 2.42  14 2.42  34 2.42  35 2.42  38 2.42  49 2.42  51 2.42
                            53 2.42  54 2.42  62 2.42  63 2.42
  51  0.750  0.000  0.500-   2 2.42   3 2.42  15 2.42  35 2.42  36 2.42  39 2.42  50 2.42  52 2.42
                            54 2.42  55 2.42  63 2.42  64 2.42
  52  0.750  0.000  0.750-   3 2.42   4 2.42  16 2.42  33 2.42  36 2.42  40 2.42  49 2.42  51 2.42
                            55 2.42  56 2.42  61 2.42  64 2.42
  53  0.750  0.250  0.000-   1 2.42   5 2.42   8 2.42  37 2.42  38 2.42  41 2.42  49 2.42  50 2.42
                            54 2.42  56 2.42  57 2.42  60 2.42
  54  0.750  0.250  0.250-   2 2.42   5 2.42   6 2.42  38 2.42  39 2.42  42 2.42  50 2.42  51 2.42
                            53 2.42  55 2.42  57 2.42  58 2.42
  55  0.750  0.250  0.500-   3 2.42   6 2.42   7 2.42  39 2.42  40 2.42  43 2.42  51 2.42  52 2.42
                            54 2.42  56 2.42  58 2.42  59 2.42
  56  0.750  0.250  0.750-   4 2.42   7 2.42   8 2.42  37 2.42  40 2.42  44 2.42  49 2.42  52 2.42
                            53 2.42  55 2.42  59 2.42  60 2.42
  57  0.750  0.500  0.000-   5 2.42   9 2.42  12 2.42  41 2.42  42 2.42  45 2.42  53 2.42  54 2.42
                            58 2.42  60 2.42  61 2.42  64 2.42
  58  0.750  0.500  0.250-   6 2.42   9 2.42  10 2.42  42 2.42  43 2.42  46 2.42  54 2.42  55 2.42
                            57 2.42  59 2.42  61 2.42  62 2.42
  59  0.750  0.500  0.500-   7 2.42  10 2.42  11 2.42  43 2.42  44 2.42  47 2.42  55 2.42  56 2.42
                            58 2.42  60 2.42  62 2.42  63 2.42
  60  0.750  0.500  0.750-   8 2.42  11 2.42  12 2.42  41 2.42  44 2.42  48 2.42  53 2.42  56 2.42
                            57 2.42  59 2.42  63 2.42  64 2.42
  61  0.750  0.750  0.000-   9 2.42  13 2.42  16 2.42  33 2.42  45 2.42  46 2.42  49 2.42  52 2.42
                            57 2.42  58 2.42  62 2.42  64 2.42
  62  0.750  0.750  0.250-  10 2.42  13 2.42  14 2.42  34 2.42  46 2.42  47 2.42  49 2.42  50 2.42
                            58 2.42  59 2.42  61 2.42  63 2.42
  63  0.750  0.750  0.500-  11 2.42  14 2.42  15 2.42  35 2.42  47 2.42  48 2.42  50 2.42  51 2.42
                            59 2.42  60 2.42  62 2.42  64 2.42
  64  0.750  0.750  0.750-  12 2.42  15 2.42  16 2.42  36 2.42  45 2.42  48 2.42  51 2.42  52 2.42
                            57 2.42  60 2.42  61 2.42  63 2.42
 
  LATTYP: Found a face centered cubic cell.
 ALAT       =    13.6770000000
  
  Lattice vectors:
  
 A1 = (   0.0000000000,   6.8385000000,   6.8385000000)
 A2 = (   6.8385000000,   0.0000000000,   6.8385000000)
 A3 = (   6.8385000000,   6.8385000000,   0.0000000000)


Analysis of symmetry for initial positions (statically):
=====================================================================
 Subroutine PRICEL returns following result:
 
  LATTYP: Found a face centered cubic cell.
 ALAT       =     3.4192500000
  
  Lattice vectors:
  
 A1 = (   0.0000000000,   1.7096250000,   1.7096250000)
 A2 = (   1.7096250000,   0.0000000000,   1.7096250000)
 A3 = (   1.7096250000,   1.7096250000,   0.0000000000)
 
  64 primitive cells build up your supercell.
 

 Routine SETGRP: Setting up the symmetry group for a 
 face centered cubic supercell.


 Subroutine GETGRP returns: Found 48 space group operations
 (whereof 48 operations were pure point group operations)
 out of a pool of 48 trial point group operations.


The static configuration has the point symmetry O_h .


Analysis of symmetry for dynamics (positions and initial velocities):
=====================================================================
 Subroutine PRICEL returns following result:
 
  LATTYP: Found a face centered cubic cell.
 ALAT       =     3.4192500000
  
  Lattice vectors:
  
 A1 = (   0.0000000000,   1.7096250000,   1.7096250000)
 A2 = (   1.7096250000,   0.0000000000,   1.7096250000)
 A3 = (   1.7096250000,   1.7096250000,   0.0000000000)
 
  64 primitive cells build up your supercell.
 

 Routine SETGRP: Setting up the symmetry group for a 
 face centered cubic supercell.


 Subroutine GETGRP returns: Found 48 space group operations
 (whereof 48 operations were pure point group operations)
 out of a pool of 48 trial point group operations.


The dynamic configuration has the point symmetry O_h .


Analysis of structural, dynamic, and magnetic symmetry:
=====================================================================
 Subroutine PRICEL returns following result:
 
  LATTYP: Found a face centered cubic cell.
 ALAT       =     3.4192500000
  
  Lattice vectors:
  
 A1 = (   0.0000000000,   1.7096250000,   1.7096250000)
 A2 = (   1.7096250000,   0.0000000000,   1.7096250000)
 A3 = (   1.7096250000,   1.7096250000,   0.0000000000)
 
  64 primitive cells build up your supercell.
 

 Routine SETGRP: Setting up the symmetry group for a 
 face centered cubic supercell.


 Subroutine GETGRP returns: Found 48 space group operations
 (whereof 48 operations were pure point group operations)
 out of a pool of 48 trial point group operations.


The magnetic configuration has the point symmetry O_h .


 Subroutine INISYM returns: Found 48 space group operations
 (whereof 48 operations are pure point group operations),
 and found    64 'primitive' translations

 
 
 KPOINTS: Zr 15x15x15                             

Automatic generation of k-mesh.
Space group operators:
 irot       det(A)        alpha          n_x          n_y          n_z        tau_x        tau_y        tau_z
    1     1.000000     0.000000     1.000000     0.000000     0.000000     0.000000     0.000000     0.000000
    2    -1.000000     0.000000     1.000000     0.000000     0.000000     0.000000     0.000000     0.000000
    3     1.000000   120.000000    -0.577350    -0.577350    -0.577350     0.000000     0.000000     0.000000
    4    -1.000000   120.000000    -0.577350    -0.577350    -0.577350     0.000000     0.000000     0.000000
    5     1.000000   120.000000     0.577350     0.577350     0.577350     0.000000     0.000000     0.000000
    6    -1.000000   120.000000     0.577350     0.577350     0.577350     0.000000     0.000000     0.000000
    7     1.000000    90.000000     0.000000     0.000000    -1.000000     0.000000     0.000000     0.000000
    8    -1.000000    90.000000     0.000000     0.000000    -1.000000     0.000000     0.000000     0.000000
    9     1.000000   180.000000     0.000000     0.707107     0.707107     0.000000     0.000000     0.000000
   10    -1.000000   180.000000     0.000000     0.707107     0.707107     0.000000     0.000000     0.000000
   11     1.000000    90.000000     0.000000     1.000000     0.000000     0.000000     0.000000     0.000000
   12    -1.000000    90.000000     0.000000     1.000000     0.000000     0.000000     0.000000     0.000000
   13     1.000000   180.000000     0.000000     0.000000     1.000000     0.000000     0.000000     0.000000
   14    -1.000000   180.000000     0.000000     0.000000     1.000000     0.000000     0.000000     0.000000
   15     1.000000   120.000000    -0.577350     0.577350     0.577350     0.000000     0.000000     0.000000
   16    -1.000000   120.000000    -0.577350     0.577350     0.577350     0.000000     0.000000     0.000000
   17     1.000000   120.000000    -0.577350     0.577350    -0.577350     0.000000     0.000000     0.000000
   18    -1.000000   120.000000    -0.577350     0.577350    -0.577350     0.000000     0.000000     0.000000
   19     1.000000    90.000000     0.000000     0.000000     1.000000     0.000000     0.000000     0.000000
   20    -1.000000    90.000000     0.000000     0.000000     1.000000     0.000000     0.000000     0.000000
   21     1.000000    90.000000    -1.000000     0.000000     0.000000     0.000000     0.000000     0.000000
   22    -1.000000    90.000000    -1.000000     0.000000     0.000000     0.000000     0.000000     0.000000
   23     1.000000   180.000000     0.707107     0.000000     0.707107     0.000000     0.000000     0.000000
   24    -1.000000   180.000000     0.707107     0.000000     0.707107     0.000000     0.000000     0.000000
   25     1.000000   120.000000     0.577350    -0.577350     0.577350     0.000000     0.000000     0.000000
   26    -1.000000   120.000000     0.577350    -0.577350     0.577350     0.000000     0.000000     0.000000
   27     1.000000   120.000000    -0.577350    -0.577350     0.577350     0.000000     0.000000     0.000000
   28    -1.000000   120.000000    -0.577350    -0.577350     0.577350     0.000000     0.000000     0.000000
   29     1.000000   180.000000     1.000000     0.000000     0.000000     0.000000     0.000000     0.000000
   30    -1.000000   180.000000     1.000000     0.000000     0.000000     0.000000     0.000000     0.000000
   31     1.000000    90.000000     0.000000    -1.000000     0.000000     0.000000     0.000000     0.000000
   32    -1.000000    90.000000     0.000000    -1.000000     0.000000     0.000000     0.000000     0.000000
   33     1.000000   180.000000     0.707107     0.707107     0.000000     0.000000     0.000000     0.000000
   34    -1.000000   180.000000     0.707107     0.707107     0.000000     0.000000     0.000000     0.000000
   35     1.000000    90.000000     1.000000     0.000000     0.000000     0.000000     0.000000     0.000000
   36    -1.000000    90.000000     1.000000     0.000000     0.000000     0.000000     0.000000     0.000000
   37     1.000000   120.000000     0.577350    -0.577350    -0.577350     0.000000     0.000000     0.000000
   38    -1.000000   120.000000     0.577350    -0.577350    -0.577350     0.000000     0.000000     0.000000
   39     1.000000   180.000000     0.000000     1.000000     0.000000     0.000000     0.000000     0.000000
   40    -1.000000   180.000000     0.000000     1.000000     0.000000     0.000000     0.000000     0.000000
   41     1.000000   120.000000     0.577350     0.577350    -0.577350     0.000000     0.000000     0.000000
   42    -1.000000   120.000000     0.577350     0.577350    -0.577350     0.000000     0.000000     0.000000
   43     1.000000   180.000000     0.000000    -0.707107     0.707107     0.000000     0.000000     0.000000
   44    -1.000000   180.000000     0.000000    -0.707107     0.707107     0.000000     0.000000     0.000000
   45     1.000000   180.000000     0.707107    -0.707107     0.000000     0.000000     0.000000     0.000000
   46    -1.000000   180.000000     0.707107    -0.707107     0.000000     0.000000     0.000000     0.000000
   47     1.000000   180.000000     0.707107     0.000000    -0.707107     0.000000     0.000000     0.000000
   48    -1.000000   180.000000     0.707107     0.000000    -0.707107     0.000000     0.000000     0.000000
 
 Subroutine IBZKPT returns following result:
 ===========================================
 
 Found     10 irreducible k-points:
 
 Following reciprocal coordinates:
            Coordinates               Weight
  0.000000  0.000000  0.000000      1.000000
  0.200000  0.000000  0.000000      8.000000
  0.400000  0.000000  0.000000      8.000000
  0.200000  0.200000  0.000000      6.000000
  0.400000  0.200000  0.000000     24.000000
 -0.400000  0.200000  0.000000     24.000000
 -0.200000  0.200000  0.000000     12.000000
  0.400000  0.400000  0.000000      6.000000
 -0.400000  0.400000  0.000000     12.000000
 -0.400000  0.400000  0.200000     24.000000
 
 Following cartesian coordinates:
            Coordinates               Weight
  0.000000  0.000000  0.000000      1.000000
 -0.014623  0.014623  0.014623      8.000000
 -0.029246  0.029246  0.029246      8.000000
  0.000000  0.000000  0.029246      6.000000
 -0.014623  0.014623  0.043869     24.000000
  0.043869 -0.043869 -0.014623     24.000000
  0.029246 -0.029246  0.000000     12.000000
  0.000000  0.000000  0.058492      6.000000
  0.058492 -0.058492  0.000000     12.000000
  0.073115 -0.043869 -0.014623     24.000000
 
 
 Subroutine IBZKPT_HF returns following result:
 ==============================================
 
 Found    125 k-points in 1st BZ
 the following    125 k-points will be used (e.g. in the exchange kernel)
 Following reciprocal coordinates:   # in IRBZ
  0.000000  0.000000  0.000000    0.00800000   1 t-inv F
  0.200000  0.000000  0.000000    0.00800000   2 t-inv F
  0.400000  0.000000  0.000000    0.00800000   3 t-inv F
  0.200000  0.200000  0.000000    0.00800000   4 t-inv F
  0.400000  0.200000  0.000000    0.00800000   5 t-inv F
 -0.400000  0.200000  0.000000    0.00800000   6 t-inv F
 -0.200000  0.200000  0.000000    0.00800000   7 t-inv F
  0.400000  0.400000  0.000000    0.00800000   8 t-inv F
 -0.400000  0.400000  0.000000    0.00800000   9 t-inv F
 -0.400000  0.400000  0.200000    0.00800000  10 t-inv F
 -0.200000  0.000000  0.000000    0.00800000   2 t-inv F
  0.000000  0.200000  0.000000    0.00800000   2 t-inv F
  0.000000 -0.200000  0.000000    0.00800000   2 t-inv F
  0.000000  0.000000  0.200000    0.00800000   2 t-inv F
  0.000000  0.000000 -0.200000    0.00800000   2 t-inv F
  0.200000  0.200000  0.200000    0.00800000   2 t-inv F
 -0.200000 -0.200000 -0.200000    0.00800000   2 t-inv F
 -0.400000  0.000000  0.000000    0.00800000   3 t-inv F
  0.000000  0.400000  0.000000    0.00800000   3 t-inv F
  0.000000 -0.400000  0.000000    0.00800000   3 t-inv F
  0.000000  0.000000  0.400000    0.00800000   3 t-inv F
  0.000000  0.000000 -0.400000    0.00800000   3 t-inv F
  0.400000  0.400000  0.400000    0.00800000   3 t-inv F
 -0.400000 -0.400000 -0.400000    0.00800000   3 t-inv F
 -0.200000 -0.200000  0.000000    0.00800000   4 t-inv F
  0.000000  0.200000  0.200000    0.00800000   4 t-inv F
  0.000000 -0.200000 -0.200000    0.00800000   4 t-inv F
  0.200000  0.000000  0.200000    0.00800000   4 t-inv F
 -0.200000  0.000000 -0.200000    0.00800000   4 t-inv F
 -0.400000 -0.200000  0.000000    0.00800000   5 t-inv F
  0.000000  0.400000  0.200000    0.00800000   5 t-inv F
  0.000000 -0.400000 -0.200000    0.00800000   5 t-inv F
  0.200000  0.000000  0.400000    0.00800000   5 t-inv F
 -0.200000  0.000000 -0.400000    0.00800000   5 t-inv F
  0.200000  0.200000 -0.200000    0.00800000   5 t-inv F
 -0.200000 -0.200000  0.200000    0.00800000   5 t-inv F
  0.400000  0.200000  0.400000    0.00800000   5 t-inv F
 -0.400000 -0.200000 -0.400000    0.00800000   5 t-inv F
  0.200000  0.400000  0.000000    0.00800000   5 t-inv F
 -0.200000 -0.400000  0.000000    0.00800000   5 t-inv F
  0.200000 -0.200000 -0.200000    0.00800000   5 t-inv F
 -0.200000  0.200000  0.200000    0.00800000   5 t-inv F
  0.400000  0.400000  0.200000    0.00800000   5 t-inv F
 -0.400000 -0.400000 -0.200000    0.00800000   5 t-inv F
  0.000000  0.200000  0.400000    0.00800000   5 t-inv F
  0.000000 -0.200000 -0.400000    0.00800000   5 t-inv F
 -0.200000  0.200000 -0.200000    0.00800000   5 t-inv F
  0.200000 -0.200000  0.200000    0.00800000   5 t-inv F
  0.200000  0.400000  0.400000    0.00800000   5 t-inv F
 -0.200000 -0.400000 -0.400000    0.00800000   5 t-inv F
  0.400000  0.000000  0.200000    0.00800000   5 t-inv F
 -0.400000  0.000000 -0.200000    0.00800000   5 t-inv F
  0.400000 -0.200000  0.000000    0.00800000   6 t-inv F
  0.000000 -0.400000  0.200000    0.00800000   6 t-inv F
  0.000000  0.400000 -0.200000    0.00800000   6 t-inv F
  0.200000  0.000000 -0.400000    0.00800000   6 t-inv F
 -0.200000  0.000000  0.400000    0.00800000   6 t-inv F
  0.200000  0.200000  0.600000    0.00800000   6 t-inv F
 -0.200000 -0.200000 -0.600000    0.00800000   6 t-inv F
 -0.400000 -0.600000 -0.400000    0.00800000   6 t-inv F
  0.400000  0.600000  0.400000    0.00800000   6 t-inv F
  0.200000 -0.400000  0.000000    0.00800000   6 t-inv F
 -0.200000  0.400000  0.000000    0.00800000   6 t-inv F
 -0.600000 -0.200000 -0.200000    0.00800000   6 t-inv F
  0.600000  0.200000  0.200000    0.00800000   6 t-inv F
 -0.400000 -0.400000 -0.600000    0.00800000   6 t-inv F
  0.400000  0.400000  0.600000    0.00800000   6 t-inv F
  0.000000  0.200000 -0.400000    0.00800000   6 t-inv F
  0.000000 -0.200000  0.400000    0.00800000   6 t-inv F
 -0.200000 -0.600000 -0.200000    0.00800000   6 t-inv F
  0.200000  0.600000  0.200000    0.00800000   6 t-inv F
 -0.600000 -0.400000 -0.400000    0.00800000   6 t-inv F
  0.600000  0.400000  0.400000    0.00800000   6 t-inv F
 -0.400000  0.000000  0.200000    0.00800000   6 t-inv F
  0.400000  0.000000 -0.200000    0.00800000   6 t-inv F
  0.200000 -0.200000  0.000000    0.00800000   7 t-inv F
  0.000000 -0.200000  0.200000    0.00800000   7 t-inv F
  0.000000  0.200000 -0.200000    0.00800000   7 t-inv F
  0.200000  0.000000 -0.200000    0.00800000   7 t-inv F
 -0.200000  0.000000  0.200000    0.00800000   7 t-inv F
  0.200000  0.200000  0.400000    0.00800000   7 t-inv F
 -0.200000 -0.200000 -0.400000    0.00800000   7 t-inv F
 -0.200000 -0.400000 -0.200000    0.00800000   7 t-inv F
  0.200000  0.400000  0.200000    0.00800000   7 t-inv F
 -0.400000 -0.200000 -0.200000    0.00800000   7 t-inv F
  0.400000  0.200000  0.200000    0.00800000   7 t-inv F
 -0.400000 -0.400000  0.000000    0.00800000   8 t-inv F
  0.000000  0.400000  0.400000    0.00800000   8 t-inv F
  0.000000 -0.400000 -0.400000    0.00800000   8 t-inv F
  0.400000  0.000000  0.400000    0.00800000   8 t-inv F
 -0.400000  0.000000 -0.400000    0.00800000   8 t-inv F
  0.400000 -0.400000  0.000000    0.00800000   9 t-inv F
  0.000000 -0.400000  0.400000    0.00800000   9 t-inv F
  0.000000  0.400000 -0.400000    0.00800000   9 t-inv F
  0.400000  0.000000 -0.400000    0.00800000   9 t-inv F
 -0.400000  0.000000  0.400000    0.00800000   9 t-inv F
  0.400000  0.400000  0.800000    0.00800000   9 t-inv F
 -0.400000 -0.400000 -0.800000    0.00800000   9 t-inv F
 -0.400000 -0.800000 -0.400000    0.00800000   9 t-inv F
  0.400000  0.800000  0.400000    0.00800000   9 t-inv F
 -0.800000 -0.400000 -0.400000    0.00800000   9 t-inv F
  0.800000  0.400000  0.400000    0.00800000   9 t-inv F
  0.400000 -0.400000 -0.200000    0.00800000  10 t-inv F
  0.200000 -0.400000  0.400000    0.00800000  10 t-inv F
 -0.200000  0.400000 -0.400000    0.00800000  10 t-inv F
  0.400000  0.200000 -0.400000    0.00800000  10 t-inv F
 -0.400000 -0.200000  0.400000    0.00800000  10 t-inv F
  0.400000  0.200000  0.800000    0.00800000  10 t-inv F
 -0.400000 -0.200000 -0.800000    0.00800000  10 t-inv F
 -0.400000 -0.800000 -0.600000    0.00800000  10 t-inv F
  0.400000  0.800000  0.600000    0.00800000  10 t-inv F
  0.200000  0.600000 -0.200000    0.00800000  10 t-inv F
 -0.200000 -0.600000  0.200000    0.00800000  10 t-inv F
  0.200000 -0.600000 -0.200000    0.00800000  10 t-inv F
 -0.200000  0.600000  0.200000    0.00800000  10 t-inv F
 -0.800000 -0.200000 -0.400000    0.00800000  10 t-inv F
  0.800000  0.200000  0.400000    0.00800000  10 t-inv F
 -0.600000 -0.400000 -0.800000    0.00800000  10 t-inv F
  0.600000  0.400000  0.800000    0.00800000  10 t-inv F
 -0.200000  0.200000  0.600000    0.00800000  10 t-inv F
  0.200000 -0.200000 -0.600000    0.00800000  10 t-inv F
 -0.400000 -0.800000 -0.200000    0.00800000  10 t-inv F
  0.400000  0.800000  0.200000    0.00800000  10 t-inv F
 -0.800000 -0.600000 -0.400000    0.00800000  10 t-inv F
  0.800000  0.600000  0.400000    0.00800000  10 t-inv F


--------------------------------------------------------------------------------------------------------




 Dimension of arrays:
   k-points           NKPTS =     10   k-points in BZ     NKDIM =     10   number of bands    NBANDS=    648
   number of dos      NEDOS =    301   number of ions     NIONS =     64
   non local maximal  LDIM  =      6   non local SUM 2l+1 LMDIM =     18
   total plane-waves  NPLWV = 262144
   max r-space proj   IRMAX =   5170   max aug-charges    IRDMAX=   9247
   dimension x,y,z NGX =    64 NGY =   64 NGZ =   64
   dimension x,y,z NGXF=   128 NGYF=  128 NGZF=  128
   support grid    NGXF=   128 NGYF=  128 NGZF=  128
   ions per type =              64
 NGX,Y,Z   is equivalent  to a cutoff of  11.00, 11.00, 11.00 a.u.
 NGXF,Y,Z  is equivalent  to a cutoff of  22.00, 22.00, 22.00 a.u.


 I would recommend the setting:
   dimension x,y,z NGX =    61 NGY =   61 NGZ =   61
 SYSTEM =  phonon of Zr bcc - omiga                
 POSCAR =  Supercell by Yi Wang                    

 Startparameter for this run:
   NWRITE =      0    write-flag & timer
   PREC   = a         normal or accurate (medium, high low for compatibility)
   ISTART =      0    job   : 0-new  1-cont  2-samecut
   ICHARG =      2    charge: 1-file 2-atom 10-const
   ISPIN  =      2    spin polarized calculation?
   LNONCOLLINEAR =      F non collinear calculations
   LSORBIT =      F    spin-orbit coupling
   INIWAV =      1    electr: 0-lowe 1-rand  2-diag
   LASPH  =      F    aspherical Exc in radial PAW
   METAGGA=      F    non-selfconsistent MetaGGA calc.

 Electronic Relaxation 1
   ENCUT  =  367.9 eV  27.04 Ry    5.20 a.u.  15.13 15.13 15.13*2*pi/ulx,y,z
   ENINI  =  367.9     initial cutoff
   ENAUG  =  703.4 eV  augmentation charge cutoff
   NELM   =     60;   NELMIN=  2; NELMDL=  0     # of ELM steps 
   EDIFF  = 0.1E-05   stopping-criterion for ELM
   LREAL  =      T    real-space projection
   NLSPLINE    = F    spline interpolate recip. space projectors
   LCOMPAT=      F    compatible to vasp.4.4
   GGA_COMPAT  = T    GGA compatible to vasp.4.4-vasp.4.6
   LMAXPAW     = -100 max onsite density
   LMAXMIX     =    2 max onsite mixed and CHGCAR
   VOSKOWN=      0    Vosko Wilk Nusair interpolation
   ROPT   =   -0.00025
 Ionic relaxation
   EDIFFG = 0.1E-04   stopping-criterion for IOM
   NSW    =    805    number of steps for IOM
   NBLOCK =      1;   KBLOCK =      1    inner block; outer block 
   IBRION =      6    ionic relax: 0-MD 1-quasi-New 2-CG
   NFREE  =      2    steps in history (QN), initial steepest desc. (CG)
   ISIF   =      2    stress and relaxation
   IWAVPR =     11    prediction:  0-non 1-charg 2-wave 3-comb
   ISYM   =      2    0-nonsym 1-usesym 2-fastsym
   LCORR  =      T    Harris-Foulkes like correction to forces

   POTIM  = 0.5000    time-step for ionic-motion
   TEIN   =    0.0    initial temperature
   TEBEG  =    0.0;   TEEND  =   0.0 temperature during run
   SMASS  =  -3.00    Nose mass-parameter (am)
   estimated Nose-frequenzy (Omega)   =  0.10E-29 period in steps =****** mass=  -0.214E-26a.u.
   SCALEE = 1.0000    scale energy and forces
   NPACO  =    256;   APACO  = 16.0  distance and # of slots for P.C.
   PSTRESS=    0.0 pullay stress

  Mass of Ions in am
   POMASS =  58.69
  Ionic Valenz
   ZVAL   =  16.00
  Atomic Wigner-Seitz radii
   RWIGS  =  -1.00
  virtual crystal weights 
   VCA    =   1.00
   NELECT =    1024.0000    total number of electrons
   NUPDOWN=      -1.0000    fix difference up-down

 DOS related values:
   EMIN   =  10.00;   EMAX   =-10.00  energy-range for DOS
   EFERMI =   0.00
   ISMEAR =     1;   SIGMA  =   0.20  broadening in eV -4-tet -1-fermi 0-gaus

 Electronic relaxation 2 (details)
   IALGO  =     38    algorithm
   LDIAG  =      T    sub-space diagonalisation (order eigenvalues)
   LSUBROT=      F    optimize rotation matrix (better conditioning)
   TURBO    =      0    0=normal 1=particle mesh
   IRESTART =      0    0=no restart 2=restart with 2 vectors
   NREBOOT  =      0    no. of reboots
   NMIN     =      0    reboot dimension
   EREF     =   0.00    reference energy to select bands
   IMIX   =      4    mixing-type and parameters
     AMIX     =   0.40;   BMIX     =  1.00
     AMIX_MAG =   1.60;   BMIX_MAG =  1.00
     AMIN     =   0.10
     WC   =   100.;   INIMIX=   1;  MIXPRE=   1;  MAXMIX= -45

 Intra band minimization:
   WEIMIN = 0.0010     energy-eigenvalue tresh-hold
   EBREAK =  0.39E-09  absolut break condition
   DEPER  =   0.30     relativ break condition  

   TIME   =   0.40     timestep for ELM

  volume/ion in A,a.u.               =       9.99        67.44
  Fermi-wavevector in a.u.,A,eV,Ry     =   1.915155  3.619118 49.903711  3.667819
  Thomas-Fermi vector in A             =   2.950909
 
 Write flags
   LWAVE  =      T    write WAVECAR
   LCHARG =      T    write CHGCAR
   LVTOT  =      F    write LOCPOT, total local potential
   LVHAR  =      F    write LOCPOT, Hartree potential only
   LELF   =      F    write electronic localiz. function (ELF)
   LORBIT =      0    0 simple, 1 ext, 2 COOP (PROOUT)


 Dipole corrections
   LMONO  =      F    monopole corrections only (constant potential shift)
   LDIPOL =      F    correct potential (dipole corrections)
   IDIPOL =      0    1-x, 2-y, 3-z, 4-all directions 
   EPSILON=  1.0000000 bulk dielectric constant

 Exchange correlation treatment:
   GGA     =    --    GGA type
   LEXCH   =     8    internal setting for exchange type
   VOSKOWN=      0    Vosko Wilk Nusair interpolation
   LHFCALC =     F    Hartree Fock is set to
   LHFONE  =     F    Hartree Fock one center treatment
   AEXX    =    0.0000 exact exchange contribution

 Linear response parameters
   LEPSILON=     F    determine dielectric tensor
   LRPA    =     F    only Hartree local field effects (RPA)
   LNABLA  =     F    use nabla operator in PAW spheres
   LVEL    =     F    velocity operator in full k-point grid
   LINTERFAST=   F  fast interpolation
   KINTER  =     0    interpolate to denser k-point grid
   CSHIFT  =0.1000    complex shift for real part using Kramers Kronig
   OMEGAMAX=  -1.0    maximum frequency
   DEG_THRESHOLD= 0.2000000E-02 threshold for treating states as degnerate
   RTIME   =    0.100 relaxation time in fs

 Orbital magnetization related:
   ORBITALMAG=     F  switch on orbital magnetization
   LCHIMAG   =     F  perturbation theory with respect to B field
   DQ        =  0.001000  dq finite difference perturbation B field



--------------------------------------------------------------------------------------------------------


 finite differences with symmetry
 charge density and potential will be updated during run
 spin polarized calculation
 Variant of blocked Davidson
 Davidson routine will perform the subspace rotation
 perform sub-space diagonalisation
    after iterative eigenvector-optimisation
 modified Broyden-mixing scheme, WC =      100.0
 initial mixing is a Kerker type mixing with AMIX =  0.4000 and BMIX =      1.0000
 Hartree-type preconditioning will be used
 using additional bands          136
 real space projection scheme for non local part
 use partial core corrections
 calculate Harris-corrections to forces 
   (improved forces if not selfconsistent)
 use gradient corrections 
 use of overlap-Matrix (Vanderbilt PP)
 Methfessel and Paxton  Order N= 1 SIGMA  =   0.20


--------------------------------------------------------------------------------------------------------


  energy-cutoff  :      367.94
  volume of cell :      639.61
      direct lattice vectors                 reciprocal lattice vectors
     0.000000000  6.838500000  6.838500000    -0.073115449  0.073115449  0.073115449
     6.838500000  0.000000000  6.838500000     0.073115449 -0.073115449  0.073115449
     6.838500000  6.838500000  0.000000000     0.073115449  0.073115449 -0.073115449

  length of vectors
     9.671099446  9.671099446  9.671099446     0.126639673  0.126639673  0.126639673


 
 k-points in units of 2pi/SCALE and weight: Zr 15x15x15                             
   0.00000000  0.00000000  0.00000000       0.008
  -0.01462309  0.01462309  0.01462309       0.064
  -0.02924618  0.02924618  0.02924618       0.064
   0.00000000  0.00000000  0.02924618       0.048
  -0.01462309  0.01462309  0.04386927       0.192
   0.04386927 -0.04386927 -0.01462309       0.192
   0.02924618 -0.02924618  0.00000000       0.096
   0.00000000  0.00000000  0.05849236       0.048
   0.05849236 -0.05849236  0.00000000       0.096
   0.07311545 -0.04386927 -0.01462309       0.192
 
 k-points in reciprocal lattice and weights: Zr 15x15x15                             
   0.00000000  0.00000000  0.00000000       0.008
   0.20000000  0.00000000  0.00000000       0.064
   0.40000000  0.00000000  0.00000000       0.064
   0.20000000  0.20000000  0.00000000       0.048
   0.40000000  0.20000000  0.00000000       0.192
  -0.40000000  0.20000000  0.00000000       0.192
  -0.20000000  0.20000000  0.00000000       0.096
   0.40000000  0.40000000  0.00000000       0.048
  -0.40000000  0.40000000  0.00000000       0.096
  -0.40000000  0.40000000  0.20000000       0.192
 
 position of ions in fractional coordinates (direct lattice) 
   0.00000000  0.00000000  0.00000000
   0.00000000  0.00000000  0.25000000
   0.00000000  0.00000000  0.50000000
   0.00000000  0.00000000  0.75000000
   0.00000000  0.25000000  0.00000000
   0.00000000  0.25000000  0.25000000
   0.00000000  0.25000000  0.50000000
   0.00000000  0.25000000  0.75000000
   0.00000000  0.50000000  0.00000000
   0.00000000  0.50000000  0.25000000
   0.00000000  0.50000000  0.50000000
   0.00000000  0.50000000  0.75000000
   0.00000000  0.75000000  0.00000000
   0.00000000  0.75000000  0.25000000
   0.00000000  0.75000000  0.50000000
   0.00000000  0.75000000  0.75000000
   0.25000000  0.00000000  0.00000000
   0.25000000  0.00000000  0.25000000
   0.25000000  0.00000000  0.50000000
   0.25000000  0.00000000  0.75000000
   0.25000000  0.25000000  0.00000000
   0.25000000  0.25000000  0.25000000
   0.25000000  0.25000000  0.50000000
   0.25000000  0.25000000  0.75000000
   0.25000000  0.50000000  0.00000000
   0.25000000  0.50000000  0.25000000
   0.25000000  0.50000000  0.50000000
   0.25000000  0.50000000  0.75000000
   0.25000000  0.75000000  0.00000000
   0.25000000  0.75000000  0.25000000
   0.25000000  0.75000000  0.50000000
   0.25000000  0.75000000  0.75000000
   0.50000000  0.00000000  0.00000000
   0.50000000  0.00000000  0.25000000
   0.50000000  0.00000000  0.50000000
   0.50000000  0.00000000  0.75000000
   0.50000000  0.25000000  0.00000000
   0.50000000  0.25000000  0.25000000
   0.50000000  0.25000000  0.50000000
   0.50000000  0.25000000  0.75000000
   0.50000000  0.50000000  0.00000000
   0.50000000  0.50000000  0.25000000
   0.50000000  0.50000000  0.50000000
   0.50000000  0.50000000  0.75000000
   0.50000000  0.75000000  0.00000000
   0.50000000  0.75000000  0.25000000
   0.50000000  0.75000000  0.50000000
   0.50000000  0.75000000  0.75000000
   0.75000000  0.00000000  0.00000000
   0.75000000  0.00000000  0.25000000
   0.75000000  0.00000000  0.50000000
   0.75000000  0.00000000  0.75000000
   0.75000000  0.25000000  0.00000000
   0.75000000  0.25000000  0.25000000
   0.75000000  0.25000000  0.50000000
   0.75000000  0.25000000  0.75000000
   0.75000000  0.50000000  0.00000000
   0.75000000  0.50000000  0.25000000
   0.75000000  0.50000000  0.50000000
   0.75000000  0.50000000  0.75000000
   0.75000000  0.75000000  0.00000000
   0.75000000  0.75000000  0.25000000
   0.75000000  0.75000000  0.50000000
   0.75000000  0.75000000  0.75000000
 
 position of ions in cartesian coordinates  (Angst):
   0.00000000  0.00000000  0.00000000
   1.70962500  1.70962500  0.00000000
   3.41925000  3.41925000  0.00000000
   5.12887500  5.12887500  0.00000000
   1.70962500  0.00000000  1.70962500
   3.41925000  1.70962500  1.70962500
   5.12887500  3.41925000  1.70962500
   6.83850000  5.12887500  1.70962500
   3.41925000  0.00000000  3.41925000
   5.12887500  1.70962500  3.41925000
   6.83850000  3.41925000  3.41925000
   8.54812500  5.12887500  3.41925000
   5.12887500  0.00000000  5.12887500
   6.83850000  1.70962500  5.12887500
   8.54812500  3.41925000  5.12887500
  10.25775000  5.12887500  5.12887500
   0.00000000  1.70962500  1.70962500
   1.70962500  3.41925000  1.70962500
   3.41925000  5.12887500  1.70962500
   5.12887500  6.83850000  1.70962500
   1.70962500  1.70962500  3.41925000
   3.41925000  3.41925000  3.41925000
   5.12887500  5.12887500  3.41925000
   6.83850000  6.83850000  3.41925000
   3.41925000  1.70962500  5.12887500
   5.12887500  3.41925000  5.12887500
   6.83850000  5.12887500  5.12887500
   8.54812500  6.83850000  5.12887500
   5.12887500  1.70962500  6.83850000
   6.83850000  3.41925000  6.83850000
   8.54812500  5.12887500  6.83850000
  10.25775000  6.83850000  6.83850000
   0.00000000  3.41925000  3.41925000
   1.70962500  5.12887500  3.41925000
   3.41925000  6.83850000  3.41925000
   5.12887500  8.54812500  3.41925000
   1.70962500  3.41925000  5.12887500
   3.41925000  5.12887500  5.12887500
   5.12887500  6.83850000  5.12887500
   6.83850000  8.54812500  5.12887500
   3.41925000  3.41925000  6.83850000
   5.12887500  5.12887500  6.83850000
   6.83850000  6.83850000  6.83850000
   8.54812500  8.54812500  6.83850000
   5.12887500  3.41925000  8.54812500
   6.83850000  5.12887500  8.54812500
   8.54812500  6.83850000  8.54812500
  10.25775000  8.54812500  8.54812500
   0.00000000  5.12887500  5.12887500
   1.70962500  6.83850000  5.12887500
   3.41925000  8.54812500  5.12887500
   5.12887500 10.25775000  5.12887500
   1.70962500  5.12887500  6.83850000
   3.41925000  6.83850000  6.83850000
   5.12887500  8.54812500  6.83850000
   6.83850000 10.25775000  6.83850000
   3.41925000  5.12887500  8.54812500
   5.12887500  6.83850000  8.54812500
   6.83850000  8.54812500  8.54812500
   8.54812500 10.25775000  8.54812500
   5.12887500  5.12887500 10.25775000
   6.83850000  6.83850000 10.25775000
   8.54812500  8.54812500 10.25775000
  10.25775000 10.25775000 10.25775000
 


--------------------------------------------------------------------------------------------------------


 k-point  1 :   0.0000 0.0000 0.0000  plane waves:   10177
 k-point  2 :   0.2000 0.0000 0.0000  plane waves:   10216
 k-point  3 :   0.4000 0.0000 0.0000  plane waves:   10257
 k-point  4 :   0.2000 0.2000 0.0000  plane waves:   10245
 k-point  5 :   0.4000 0.2000 0.0000  plane waves:   10252
 k-point  6 :  -0.4000 0.2000 0.0000  plane waves:   10234
 k-point  7 :  -0.2000 0.2000 0.0000  plane waves:   10211
 k-point  8 :   0.4000 0.4000 0.0000  plane waves:   10270
 k-point  9 :  -0.4000 0.4000 0.0000  plane waves:   10283
 k-point 10 :  -0.4000 0.4000 0.2000  plane waves:   10256

 maximum and minimum number of plane-waves per node :     10283    10177

 maximum number of plane-waves:     10283
 maximum index in each direction: 
   IXMAX=   15   IYMAX=   15   IZMAX=   15
   IXMIN=  -15   IYMIN=  -15   IZMIN=  -15

 NGX is ok and might be reduce to  62
 NGY is ok and might be reduce to  62
 NGZ is ok and might be reduce to  62

 serial   3D FFT for wavefunctions
 parallel 3D FFT for charge:
    minimum data exchange during FFTs selected (reduces bandwidth)


 total amount of memory used by VASP on root node   758502. kBytes
========================================================================

   base      :      30000. kBytes
   nonlr-proj:      55429. kBytes
   fftplans  :      18931. kBytes
   grid      :      59310. kBytes
   one-center:       1990. kBytes
   wavefun   :     592842. kBytes
 
     INWAV:  cpu time    0.0000: real time    0.0000
 Broyden mixing: mesh for mixing (old mesh)
   NGX = 31   NGY = 31   NGZ = 31
  (NGX  =128   NGY  =128   NGZ  =128)
  gives a total of  29791 points

 initial charge density was supplied:
 charge density of overlapping atoms calculated
 number of electron    1024.0000000 magnetization      64.0000000
 keeping initial charge density in first step


--------------------------------------------------------------------------------------------------------


 Maximum index for non-local projection operator         4921
 Maximum index for augmentation-charges         2211 (set IRDMAX)


--------------------------------------------------------------------------------------------------------


 First call to EWALD:  gamma=   0.206
 Maximum number of real-space cells 3x 3x 3
 Maximum number of reciprocal cells 3x 3x 3

 FEWALD executed in parallel
    FEWALD:  cpu time    0.0070: real time    0.0069


----------------------------------------- Iteration    1(   1)  ---------------------------------------


    POTLOK:  cpu time    0.6899: real time    0.6885
    SETDIJ:  cpu time    0.1040: real time    0.1041
     EDDAV:  cpu time  416.2067: real time  415.8814
       DOS:  cpu time    0.0090: real time    0.0087
    --------------------------------------------
      LOOP:  cpu time  417.0106: real time  416.6859

 eigenvalue-minimisations  : 29808
 total energy-change (2. order) : 0.1421349E+05  (-0.5291449E+05)
 number of electron    1024.0000000 magnetization      64.0000000
 augmentation part     1024.0000000 magnetization      64.0000000

 Free energy of the ion-electron system (eV)
  ---------------------------------------------------
  alpha Z        PSCENC =     10788.19976491
  Ewald energy   TEWEN  =   -158176.33604469
  -Hartree energ DENC   =    -59049.51858578
  -exchange      EXHF   =         0.00000000
  -V(xc)+E(xc)   XCENC  =      5740.20187867
  PAW double counting   =    172361.15642774  -181272.45834873
  entropy T*S    EENTRO =        -0.00580403
  eigenvalues    EBANDS =      -191.04524274
  atomic energy  EATOM  =    224013.29143063
  Solvation  Ediel_sol  =         0.00000000
  ---------------------------------------------------
  free energy    TOTEN  =     14213.48547599 eV

  energy without entropy =    14213.49128002  energy(sigma->0) =    14213.48741067


--------------------------------------------------------------------------------------------------------




----------------------------------------- Iteration    1(   2)  ---------------------------------------


     EDDAV:  cpu time  374.9100: real time  374.6015
       DOS:  cpu time    0.0090: real time    0.0087
    --------------------------------------------
      LOOP:  cpu time  374.9190: real time  374.6108

 eigenvalue-minimisations  : 25920
 total energy-change (2. order) :-0.1331477E+05  (-0.1287312E+05)
 number of electron    1024.0000000 magnetization      64.0000000
 augmentation part     1024.0000000 magnetization      64.0000000

 Free energy of the ion-electron system (eV)
  ---------------------------------------------------
  alpha Z        PSCENC =     10788.19976491
  Ewald energy   TEWEN  =   -158176.33604469
  -Hartree energ DENC   =    -59049.51858578
  -exchange      EXHF   =         0.00000000
  -V(xc)+E(xc)   XCENC  =      5740.20187867
  PAW double counting   =    172361.15642774  -181272.45834873
  entropy T*S    EENTRO =         0.01450793
  eigenvalues    EBANDS =    -13505.83339123
  atomic energy  EATOM  =    224013.29143063
  Solvation  Ediel_sol  =         0.00000000
  ---------------------------------------------------
  free energy    TOTEN  =       898.71763946 eV

  energy without entropy =      898.70313153  energy(sigma->0) =      898.71280348


--------------------------------------------------------------------------------------------------------




----------------------------------------- Iteration    1(   3)  ---------------------------------------


     EDDAV:  cpu time  382.1519: real time  381.8382
       DOS:  cpu time    0.0100: real time    0.0105
    --------------------------------------------
      LOOP:  cpu time  382.1629: real time  381.8492

 eigenvalue-minimisations  : 26632
 total energy-change (2. order) :-0.1260970E+04  (-0.1047620E+04)
 number of electron    1024.0000000 magnetization      64.0000000
 augmentation part     1024.0000000 magnetization      64.0000000

 Free energy of the ion-electron system (eV)
  ---------------------------------------------------
  alpha Z        PSCENC =     10788.19976491
  Ewald energy   TEWEN  =   -158176.33604469
  -Hartree energ DENC   =    -59049.51858578
  -exchange      EXHF   =         0.00000000
  -V(xc)+E(xc)   XCENC  =      5740.20187867
  PAW double counting   =    172361.15642774  -181272.45834873
  entropy T*S    EENTRO =        -0.00720142
  eigenvalues    EBANDS =    -14766.78151864
  atomic energy  EATOM  =    224013.29143063
  Solvation  Ediel_sol  =         0.00000000
  ---------------------------------------------------
  free energy    TOTEN  =      -362.25219730 eV

  energy without entropy =     -362.24499589  energy(sigma->0) =     -362.24979683


--------------------------------------------------------------------------------------------------------




----------------------------------------- Iteration    1(   4)  ---------------------------------------


     EDDAV:  cpu time  395.4819: real time  395.1562
       DOS:  cpu time    0.0110: real time    0.0105
    --------------------------------------------
      LOOP:  cpu time  395.4939: real time  395.1674

 eigenvalue-minimisations  : 27792
 total energy-change (2. order) :-0.6336564E+02  (-0.6201500E+02)
 number of electron    1024.0000000 magnetization      64.0000000
 augmentation part     1024.0000000 magnetization      64.0000000

 Free energy of the ion-electron system (eV)
  ---------------------------------------------------
  alpha Z        PSCENC =     10788.19976491
  Ewald energy   TEWEN  =   -158176.33604469
  -Hartree energ DENC   =    -59049.51858578
  -exchange      EXHF   =         0.00000000
  -V(xc)+E(xc)   XCENC  =      5740.20187867
  PAW double counting   =    172361.15642774  -181272.45834873
  entropy T*S    EENTRO =        -0.00883720
  eigenvalues    EBANDS =    -14830.14552032
  atomic energy  EATOM  =    224013.29143063
  Solvation  Ediel_sol  =         0.00000000
  ---------------------------------------------------
  free energy    TOTEN  =      -425.61783476 eV

  energy without entropy =     -425.60899756  energy(sigma->0) =     -425.61488903


--------------------------------------------------------------------------------------------------------




----------------------------------------- Iteration    1(   5)  ---------------------------------------


     EDDAV:  cpu time  391.7154: real time  391.3926
       DOS:  cpu time    0.0100: real time    0.0105
    CHARGE:  cpu time   14.8247: real time   14.8126
    MIXING:  cpu time    0.0140: real time    0.0128
    --------------------------------------------
      LOOP:  cpu time  406.5642: real time  406.2292

 eigenvalue-minimisations  : 27568
 total energy-change (2. order) :-0.9276340E+00  (-0.9270822E+00)
 number of electron    1023.9999430 magnetization      55.4243168
 augmentation part      574.5008268 magnetization      45.0030907

 Broyden mixing:
  rms(total) = 0.67049E+01    rms(broyden)= 0.66956E+01
  rms(prec ) = 0.91669E+01
  weight for this iteration     100.00

 Free energy of the ion-electron system (eV)
  ---------------------------------------------------
  alpha Z        PSCENC =     10788.19976491
  Ewald energy   TEWEN  =   -158176.33604469
  -Hartree energ DENC   =    -59049.51858578
  -exchange      EXHF   =         0.00000000
  -V(xc)+E(xc)   XCENC  =      5740.20187867
  PAW double counting   =    172361.15642774  -181272.45834873
  entropy T*S    EENTRO =        -0.00859295
  eigenvalues    EBANDS =    -14831.07339855
  atomic energy  EATOM  =    224013.29143063
  Solvation  Ediel_sol  =         0.00000000
  ---------------------------------------------------
  free energy    TOTEN  =      -426.54546875 eV

  energy without entropy =     -426.53687580  energy(sigma->0) =     -426.54260443


--------------------------------------------------------------------------------------------------------




----------------------------------------- Iteration    1(   6)  ---------------------------------------


    POTLOK:  cpu time    0.6799: real time    0.6795
    SETDIJ:  cpu time    0.1060: real time    0.1058
     EDDAV:  cpu time  389.2868: real time  388.9673
       DOS:  cpu time    0.0100: real time    0.0099
    CHARGE:  cpu time   14.3758: real time   14.3640
    MIXING:  cpu time    0.0130: real time    0.0125
    --------------------------------------------
      LOOP:  cpu time  404.4715: real time  404.1399

 eigenvalue-minimisations  : 27320
 total energy-change (2. order) : 0.4147004E+02  (-0.5235826E+02)
 number of electron    1023.9999348 magnetization      48.3472693
 augmentation part      625.0350803 magnetization      42.6989337

 Broyden mixing:
  rms(total) = 0.40851E+01    rms(broyden)= 0.40840E+01
  rms(prec ) = 0.51451E+01
  weight for this iteration     100.00

 eigenvalues of (default mixing * dielectric matrix)
  average eigenvalue GAMMA=   0.6115
  0.6115

 Free energy of the ion-electron system (eV)
  ---------------------------------------------------
  alpha Z        PSCENC =     10788.19976491
  Ewald energy   TEWEN  =   -158176.33604469
  -Hartree energ DENC   =    -56018.74484691
  -exchange      EXHF   =         0.00000000
  -V(xc)+E(xc)   XCENC  =      5621.49056230
  PAW double counting   =    168986.02700402  -177604.92793863
  entropy T*S    EENTRO =        -0.22063790
  eigenvalues    EBANDS =    -17993.85472400
  atomic energy  EATOM  =    224013.29143063
  Solvation  Ediel_sol  =         0.00000000
  ---------------------------------------------------
  free energy    TOTEN  =      -385.07543028 eV

  energy without entropy =     -384.85479238  energy(sigma->0) =     -385.00188432


--------------------------------------------------------------------------------------------------------




----------------------------------------- Iteration    1(   7)  ---------------------------------------


    POTLOK:  cpu time    0.7039: real time    0.7037
    SETDIJ:  cpu time    0.1070: real time    0.1064
     EDDAV:  cpu time  387.5991: real time  387.2804
       DOS:  cpu time    0.0100: real time    0.0099
    CHARGE:  cpu time   14.3668: real time   14.3554
    MIXING:  cpu time    0.0130: real time    0.0129
    --------------------------------------------
      LOOP:  cpu time  402.8008: real time  402.4694

 eigenvalue-minimisations  : 27152
 total energy-change (2. order) : 0.2041482E+02  (-0.8772416E+01)
 number of electron    1023.9999381 magnetization      41.9919605
 augmentation part      605.3092796 magnetization      34.4545902

 Broyden mixing:
  rms(total) = 0.59666E+00    rms(broyden)= 0.59545E+00
  rms(prec ) = 0.74503E+00
  weight for this iteration     100.00

 eigenvalues of (default mixing * dielectric matrix)
  average eigenvalue GAMMA=   0.8346
  1.0562  0.6131

 Free energy of the ion-electron system (eV)
  ---------------------------------------------------
  alpha Z        PSCENC =     10788.19976491
  Ewald energy   TEWEN  =   -158176.33604469
  -Hartree energ DENC   =    -56981.50717186
  -exchange      EXHF   =         0.00000000
  -V(xc)+E(xc)   XCENC  =      5658.32298577
  PAW double counting   =    171464.68968568  -180350.12246203
  entropy T*S    EENTRO =        -0.06745258
  eigenvalues    EBANDS =    -16781.13134784
  atomic energy  EATOM  =    224013.29143063
  Solvation  Ediel_sol  =         0.00000000
  ---------------------------------------------------
  free energy    TOTEN  =      -364.66061201 eV

  energy without entropy =     -364.59315943  energy(sigma->0) =     -364.63812782


--------------------------------------------------------------------------------------------------------




----------------------------------------- Iteration    1(   8)  ---------------------------------------


    POTLOK:  cpu time    0.6849: real time    0.6842
    SETDIJ:  cpu time    0.1060: real time    0.1064
     EDDAV:  cpu time  394.8660: real time  394.5416
       DOS:  cpu time    0.0110: real time    0.0103
    CHARGE:  cpu time   14.6788: real time   14.6671
    MIXING:  cpu time    0.0130: real time    0.0135
    --------------------------------------------
      LOOP:  cpu time  410.3616: real time  410.0240

 eigenvalue-minimisations  : 27808
 total energy-change (2. order) : 0.7142409E-01  (-0.7729292E-01)
 number of electron    1023.9999380 magnetization      38.9862418
 augmentation part      605.5121001 magnetization      32.7081781

 Broyden mixing:
  rms(total) = 0.26724E+00    rms(broyden)= 0.26714E+00
  rms(prec ) = 0.35385E+00
  weight for this iteration     100.00

 eigenvalues of (default mixing * dielectric matrix)
  average eigenvalue GAMMA=   1.1485
  0.6295  0.9451  1.8710

 Free energy of the ion-electron system (eV)
  ---------------------------------------------------
  alpha Z        PSCENC =     10788.19976491
  Ewald energy   TEWEN  =   -158176.33604469
  -Hartree energ DENC   =    -56821.76508908
  -exchange      EXHF   =         0.00000000
  -V(xc)+E(xc)   XCENC  =      5652.72137046
  PAW double counting   =    172453.08448031  -181442.68245353
  entropy T*S    EENTRO =        -0.07422387
  eigenvalues    EBANDS =    -16831.02842306
  atomic energy  EATOM  =    224013.29143063
  Solvation  Ediel_sol  =         0.00000000
  ---------------------------------------------------
  free energy    TOTEN  =      -364.58918792 eV

  energy without entropy =     -364.51496405  energy(sigma->0) =     -364.56444663


--------------------------------------------------------------------------------------------------------




----------------------------------------- Iteration    1(   9)  ---------------------------------------


    POTLOK:  cpu time    0.7189: real time    0.7182
    SETDIJ:  cpu time    0.1070: real time    0.1067
     EDDAV:  cpu time  396.8967: real time  396.5698
       DOS:  cpu time    0.0100: real time    0.0101
    CHARGE:  cpu time   14.4258: real time   14.4144
    MIXING:  cpu time    0.0140: real time    0.0142
    --------------------------------------------
      LOOP:  cpu time  412.1733: real time  411.8341

 eigenvalue-minimisations  : 28048
 total energy-change (2. order) : 0.1065035E+00  (-0.1631442E-01)
 number of electron    1023.9999379 magnetization      39.2842919
 augmentation part      606.0844436 magnetization      33.7982038

 Broyden mixing:
  rms(total) = 0.80091E-01    rms(broyden)= 0.80067E-01
  rms(prec ) = 0.83368E-01
  weight for this iteration     100.00

 eigenvalues of (default mixing * dielectric matrix)
  average eigenvalue GAMMA=   1.1098
  2.1141  1.0487  0.6382  0.6382

 Free energy of the ion-electron system (eV)
  ---------------------------------------------------
  alpha Z        PSCENC =     10788.19976491
  Ewald energy   TEWEN  =   -158176.33604469
  -Hartree energ DENC   =    -56693.56372836
  -exchange      EXHF   =         0.00000000
  -V(xc)+E(xc)   XCENC  =      5648.34998991
  PAW double counting   =    173196.76020035  -182255.20553770
  entropy T*S    EENTRO =        -0.07799057
  eigenvalues    EBANDS =    -16885.90076894
  atomic energy  EATOM  =    224013.29143063
  Solvation  Ediel_sol  =         0.00000000
  ---------------------------------------------------
  free energy    TOTEN  =      -364.48268447 eV

  energy without entropy =     -364.40469390  energy(sigma->0) =     -364.45668761


--------------------------------------------------------------------------------------------------------




----------------------------------------- Iteration    1(  10)  ---------------------------------------


    POTLOK:  cpu time    0.7129: real time    0.7129
    SETDIJ:  cpu time    0.1070: real time    0.1069
     EDDAV:  cpu time  410.5086: real time  410.1711
       DOS:  cpu time    0.0100: real time    0.0103
    CHARGE:  cpu time   15.1117: real time   15.0991
    MIXING:  cpu time    0.0150: real time    0.0149
    --------------------------------------------
      LOOP:  cpu time  426.4662: real time  426.1158

 eigenvalue-minimisations  : 29176
 total energy-change (2. order) :-0.3213052E-02  (-0.1016467E-02)
 number of electron    1023.9999379 magnetization      39.8551693
 augmentation part      606.0605852 magnetization      34.3136428

 Broyden mixing:
  rms(total) = 0.31893E-01    rms(broyden)= 0.31862E-01
  rms(prec ) = 0.33340E-01
  weight for this iteration     100.00

 eigenvalues of (default mixing * dielectric matrix)
  average eigenvalue GAMMA=   1.2627
  2.2803  1.6866  1.0915  0.6275  0.6275

 Free energy of the ion-electron system (eV)
  ---------------------------------------------------
  alpha Z        PSCENC =     10788.19976491
  Ewald energy   TEWEN  =   -158176.33604469
  -Hartree energ DENC   =    -56684.99225920
  -exchange      EXHF   =         0.00000000
  -V(xc)+E(xc)   XCENC  =      5648.11889504
  PAW double counting   =    173328.38316412  -182394.01242594
  entropy T*S    EENTRO =        -0.07738360
  eigenvalues    EBANDS =    -16887.06103879
  atomic energy  EATOM  =    224013.29143063
  Solvation  Ediel_sol  =         0.00000000
  ---------------------------------------------------
  free energy    TOTEN  =      -364.48589752 eV

  energy without entropy =     -364.40851392  energy(sigma->0) =     -364.46010299


--------------------------------------------------------------------------------------------------------




----------------------------------------- Iteration    1(  11)  ---------------------------------------


    POTLOK:  cpu time    0.7229: real time    0.7219
    SETDIJ:  cpu time    0.1070: real time    0.1066
     EDDAV:  cpu time  396.6357: real time  396.3101
       DOS:  cpu time    0.0100: real time    0.0103
    CHARGE:  cpu time   15.5836: real time   15.5708
    MIXING:  cpu time    0.0160: real time    0.0157
    --------------------------------------------
      LOOP:  cpu time  413.0772: real time  412.7362

 eigenvalue-minimisations  : 28256
 total energy-change (2. order) :-0.2747296E-02  (-0.3666813E-03)
 number of electron    1023.9999379 magnetization      39.8517383
 augmentation part      606.0161141 magnetization      34.1850832

 Broyden mixing:
  rms(total) = 0.93048E-02    rms(broyden)= 0.92777E-02
  rms(prec ) = 0.11905E-01
  weight for this iteration     100.00

 eigenvalues of (default mixing * dielectric matrix)
  average eigenvalue GAMMA=   1.1944
  2.3847  1.7134  1.1038  0.6745  0.6745  0.6157

 Free energy of the ion-electron system (eV)
  ---------------------------------------------------
  alpha Z        PSCENC =     10788.19976491
  Ewald energy   TEWEN  =   -158176.33604469
  -Hartree energ DENC   =    -56683.23865035
  -exchange      EXHF   =         0.00000000
  -V(xc)+E(xc)   XCENC  =      5648.05238743
  PAW double counting   =    173445.18179451  -182513.82212415
  entropy T*S    EENTRO =        -0.07742278
  eigenvalues    EBANDS =    -16885.73978032
  atomic energy  EATOM  =    224013.29143063
  Solvation  Ediel_sol  =         0.00000000
  ---------------------------------------------------
  free energy    TOTEN  =      -364.48864481 eV

  energy without entropy =     -364.41122203  energy(sigma->0) =     -364.46283722


--------------------------------------------------------------------------------------------------------




----------------------------------------- Iteration    1(  12)  ---------------------------------------


    POTLOK:  cpu time    0.6999: real time    0.7000
    SETDIJ:  cpu time    0.1070: real time    0.1063
     EDDAV:  cpu time  389.7048: real time  389.3845
       DOS:  cpu time    0.0100: real time    0.0103
    CHARGE:  cpu time   15.5686: real time   15.5556
    MIXING:  cpu time    0.0160: real time    0.0164
    --------------------------------------------
      LOOP:  cpu time  406.1073: real time  405.7747

 eigenvalue-minimisations  : 27704
 total energy-change (2. order) :-0.4604101E-04  (-0.4191795E-04)
 number of electron    1023.9999379 magnetization      39.8419612
 augmentation part      606.0516111 magnetization      34.1730581

 Broyden mixing:
  rms(total) = 0.24353E-02    rms(broyden)= 0.24217E-02
  rms(prec ) = 0.26349E-02
  weight for this iteration     100.00

 eigenvalues of (default mixing * dielectric matrix)
  average eigenvalue GAMMA=   1.2112
  2.4649  1.6514  1.3780  1.0246  0.6955  0.6437  0.6202

 Free energy of the ion-electron system (eV)
  ---------------------------------------------------
  alpha Z        PSCENC =     10788.19976491
  Ewald energy   TEWEN  =   -158176.33604469
  -Hartree energ DENC   =    -56680.23269347
  -exchange      EXHF   =         0.00000000
  -V(xc)+E(xc)   XCENC  =      5647.93755700
  PAW double counting   =    173470.50050979  -182539.56944554
  entropy T*S    EENTRO =        -0.07796993
  eigenvalues    EBANDS =    -16888.20179956
  atomic energy  EATOM  =    224013.29143063
  Solvation  Ediel_sol  =         0.00000000
  ---------------------------------------------------
  free energy    TOTEN  =      -364.48869086 eV

  energy without entropy =     -364.41072093  energy(sigma->0) =     -364.46270088


--------------------------------------------------------------------------------------------------------




----------------------------------------- Iteration    1(  13)  ---------------------------------------


    POTLOK:  cpu time    0.7219: real time    0.7221
    SETDIJ:  cpu time    0.1070: real time    0.1068
     EDDAV:  cpu time  339.6924: real time  339.4118
       DOS:  cpu time    0.0100: real time    0.0101
    CHARGE:  cpu time   15.1567: real time   15.1446
    MIXING:  cpu time    0.0180: real time    0.0172
    --------------------------------------------
      LOOP:  cpu time  355.7069: real time  355.4135

 eigenvalue-minimisations  : 23240
 total energy-change (2. order) :-0.9205454E-05  (-0.1987891E-05)
 number of electron    1023.9999379 magnetization      39.8415733
 augmentation part      606.0585313 magnetization      34.1722233

 Broyden mixing:
  rms(total) = 0.18209E-02    rms(broyden)= 0.18206E-02
  rms(prec ) = 0.24958E-02
  weight for this iteration     100.00

 eigenvalues of (default mixing * dielectric matrix)
  average eigenvalue GAMMA=   1.2719
  2.5066  1.9754  1.7237  1.1431  0.6275  0.6275  0.7858  0.7858

 Free energy of the ion-electron system (eV)
  ---------------------------------------------------
  alpha Z        PSCENC =     10788.19976491
  Ewald energy   TEWEN  =   -158176.33604469
  -Hartree energ DENC   =    -56679.92826940
  -exchange      EXHF   =         0.00000000
  -V(xc)+E(xc)   XCENC  =      5647.92327914
  PAW double counting   =    173483.64312969  -182552.52249791
  entropy T*S    EENTRO =        -0.07807621
  eigenvalues    EBANDS =    -16888.68141623
  atomic energy  EATOM  =    224013.29143063
  Solvation  Ediel_sol  =         0.00000000
  ---------------------------------------------------
  free energy    TOTEN  =      -364.48870006 eV

  energy without entropy =     -364.41062385  energy(sigma->0) =     -364.46267466


--------------------------------------------------------------------------------------------------------




----------------------------------------- Iteration    1(  14)  ---------------------------------------


    POTLOK:  cpu time    0.6839: real time    0.6842
    SETDIJ:  cpu time    0.1060: real time    0.1051
     EDDAV:  cpu time  332.4885: real time  332.2160
       DOS:  cpu time    0.0100: real time    0.0102
    CHARGE:  cpu time   14.1179: real time   14.1063
    MIXING:  cpu time    0.0190: real time    0.0181
    --------------------------------------------
      LOOP:  cpu time  347.4262: real time  347.1406

 eigenvalue-minimisations  : 22784
 total energy-change (2. order) : 0.2683912E-04  (-0.9989782E-06)
 number of electron    1023.9999379 magnetization      39.8412879
 augmentation part      606.0525471 magnetization      34.1725242

 Broyden mixing:
  rms(total) = 0.33064E-03    rms(broyden)= 0.32962E-03
  rms(prec ) = 0.39421E-03
  weight for this iteration     100.00

 eigenvalues of (default mixing * dielectric matrix)
  average eigenvalue GAMMA=   1.2753
  2.5844  2.4212  1.6809  1.1876  0.8511  0.8511  0.6298  0.6298  0.6418

 Free energy of the ion-electron system (eV)
  ---------------------------------------------------
  alpha Z        PSCENC =     10788.19976491
  Ewald energy   TEWEN  =   -158176.33604469
  -Hartree energ DENC   =    -56680.71159568
  -exchange      EXHF   =         0.00000000
  -V(xc)+E(xc)   XCENC  =      5647.95247629
  PAW double counting   =    173491.78100209  -182560.29866959
  entropy T*S    EENTRO =        -0.07801270
  eigenvalues    EBANDS =    -16888.28902447
  atomic energy  EATOM  =    224013.29143063
  Solvation  Ediel_sol  =         0.00000000
  ---------------------------------------------------
  free energy    TOTEN  =      -364.48867322 eV

  energy without entropy =     -364.41066052  energy(sigma->0) =     -364.46266899


--------------------------------------------------------------------------------------------------------




----------------------------------------- Iteration    1(  15)  ---------------------------------------


    POTLOK:  cpu time    0.7189: real time    0.7182
    SETDIJ:  cpu time    0.1070: real time    0.1067
     EDDAV:  cpu time  233.0376: real time  232.8463
       DOS:  cpu time    0.0100: real time    0.0103
    CHARGE:  cpu time   13.8169: real time   13.8055
    MIXING:  cpu time    0.0190: real time    0.0189
    --------------------------------------------
      LOOP:  cpu time  247.7093: real time  247.5067

 eigenvalue-minimisations  : 13824
 total energy-change (2. order) : 0.4799076E-05  (-0.4907905E-07)
 number of electron    1023.9999379 magnetization      39.8414439
 augmentation part      606.0515954 magnetization      34.1728316

 Broyden mixing:
  rms(total) = 0.93324E-04    rms(broyden)= 0.92217E-04
  rms(prec ) = 0.10859E-03
  weight for this iteration     100.00

 eigenvalues of (default mixing * dielectric matrix)
  average eigenvalue GAMMA=   1.2445
  2.6134  2.4701  1.6686  1.2231  0.9618  0.8834  0.7337  0.6347  0.6347  0.6217

 Free energy of the ion-electron system (eV)
  ---------------------------------------------------
  alpha Z        PSCENC =     10788.19976491
  Ewald energy   TEWEN  =   -158176.33604469
  -Hartree energ DENC   =    -56680.85507059
  -exchange      EXHF   =         0.00000000
  -V(xc)+E(xc)   XCENC  =      5647.95764754
  PAW double counting   =    173492.65073042  -182561.09320181
  entropy T*S    EENTRO =        -0.07799613
  eigenvalues    EBANDS =    -16888.22592869
  atomic energy  EATOM  =    224013.29143063
  Solvation  Ediel_sol  =         0.00000000
  ---------------------------------------------------
  free energy    TOTEN  =      -364.48866842 eV

  energy without entropy =     -364.41067229  energy(sigma->0) =     -364.46266971


--------------------------------------------------------------------------------------------------------




----------------------------------------- Iteration    1(  16)  ---------------------------------------


    POTLOK:  cpu time    0.6839: real time    0.6833
    SETDIJ:  cpu time    0.1050: real time    0.1052
     EDDAV:  cpu time  228.1313: real time  227.9444
       DOS:  cpu time    0.0110: real time    0.0101
    --------------------------------------------
      LOOP:  cpu time  228.9322: real time  228.7436

 eigenvalue-minimisations  : 13680
 total energy-change (2. order) :-0.3887690E-06  (-0.9817635E-08)
 number of electron    1023.9999379 magnetization      39.8414439
 augmentation part      606.0515954 magnetization      34.1728316

 Free energy of the ion-electron system (eV)
  ---------------------------------------------------
  alpha Z        PSCENC =     10788.19976491
  Ewald energy   TEWEN  =   -158176.33604469
  -Hartree energ DENC   =    -56680.84248235
  -exchange      EXHF   =         0.00000000
  -V(xc)+E(xc)   XCENC  =      5647.95721184
  PAW double counting   =    173492.46522181  -182560.90682161
  entropy T*S    EENTRO =        -0.07799637
  eigenvalues    EBANDS =    -16888.23895298
  atomic energy  EATOM  =    224013.29143063
  Solvation  Ediel_sol  =         0.00000000
  ---------------------------------------------------
  free energy    TOTEN  =      -364.48866881 eV

  energy without entropy =     -364.41067245  energy(sigma->0) =     -364.46267002


--------------------------------------------------------------------------------------------------------




 average (electrostatic) potential at core
  the test charge radii are     0.8614
  (the norm of the test charge is              1.0000)
       1 -78.4132       2 -78.4132       3 -78.4132       4 -78.4132       5 -78.4132
       6 -78.4132       7 -78.4132       8 -78.4132       9 -78.4132      10 -78.4132
      11 -78.4132      12 -78.4132      13 -78.4132      14 -78.4132      15 -78.4132
      16 -78.4132      17 -78.4132      18 -78.4132      19 -78.4132      20 -78.4132
      21 -78.4132      22 -78.4132      23 -78.4132      24 -78.4132      25 -78.4132
      26 -78.4132      27 -78.4132      28 -78.4132      29 -78.4132      30 -78.4132
      31 -78.4132      32 -78.4132      33 -78.4132      34 -78.4132      35 -78.4132
      36 -78.4132      37 -78.4132      38 -78.4132      39 -78.4132      40 -78.4132
      41 -78.4132      42 -78.4132      43 -78.4132      44 -78.4132      45 -78.4132
      46 -78.4132      47 -78.4132      48 -78.4132      49 -78.4132      50 -78.4132
      51 -78.4132      52 -78.4132      53 -78.4132      54 -78.4132      55 -78.4132
      56 -78.4132      57 -78.4132      58 -78.4132      59 -78.4132      60 -78.4132
      61 -78.4132      62 -78.4132      63 -78.4132      64 -78.4132
 
 
 
 E-fermi :   8.9881     XC(G=0): -14.3316     alpha+bet :-16.2013


 spin component 1

 k-point     1 :       0.0000    0.0000    0.0000
  band No.  band energies     occupation 
      1     -55.2465      1.00000
      2     -55.2464      1.00000
      3     -55.2464      1.00000
      4     -55.2464      1.00000
      5     -55.2143      1.00000
      6     -55.2143      1.00000
      7     -55.2143      1.00000
      8     -55.1964      1.00000
      9     -55.1964      1.00000
     10     -55.1964      1.00000
     11     -55.1964      1.00000
     12     -55.1964      1.00000
     13     -55.1964      1.00000
     14     -55.1964      1.00000
     15     -55.1964      1.00000
     16     -55.1964      1.00000
     17     -55.1964      1.00000
     18     -55.1964      1.00000
     19     -55.1964      1.00000
     20     -55.1964      1.00000
     21     -55.1964      1.00000
     22     -55.1964      1.00000
     23     -55.1964      1.00000
     24     -55.1964      1.00000
     25     -55.1964      1.00000
     26     -55.1964      1.00000
     27     -55.1964      1.00000
     28     -55.1964      1.00000
     29     -55.1964      1.00000
     30     -55.1964      1.00000
     31     -55.1964      1.00000
     32     -55.1664      1.00000
     33     -55.1664      1.00000
     34     -55.1664      1.00000
     35     -55.1664      1.00000
     36     -55.1664      1.00000
     37     -55.1664      1.00000
     38     -55.1664      1.00000
     39     -55.1664      1.00000
     40     -55.1664      1.00000
     41     -55.1664      1.00000
     42     -55.1664      1.00000
     43     -55.1664      1.00000
     44     -55.1412      1.00000
     45     -55.1412      1.00000
     46     -55.1412      1.00000
     47     -55.1412      1.00000
     48     -55.1412      1.00000
     49     -55.1412      1.00000
     50     -55.1412      1.00000
     51     -55.1412      1.00000
     52     -55.1412      1.00000
     53     -55.1412      1.00000
     54     -55.1412      1.00000
     55     -55.1412      1.00000
     56     -55.0993      1.00000
     57     -55.0993      1.00000
     58     -55.0993      1.00000
     59     -55.0993      1.00000
     60     -55.0993      1.00000
     61     -55.0993      1.00000
     62     -55.0993      1.00000
     63     -55.0993      1.00000
     64     -55.0967      1.00000
     65     -55.0967      1.00000
     66     -55.0967      1.00000
     67     -55.0967      1.00000
     68     -55.0967      1.00000
     69     -55.0967      1.00000
     70     -55.0796      1.00000
     71     -55.0796      1.00000
     72     -55.0796      1.00000
     73     -55.0796      1.00000
     74     -55.0796      1.00000
     75     -55.0796      1.00000
     76     -55.0796      1.00000
     77     -55.0796      1.00000
     78     -55.0796      1.00000
     79     -55.0796      1.00000
     80     -55.0796      1.00000
     81     -55.0796      1.00000
     82     -55.0636      1.00000
     83     -55.0636      1.00000
     84     -55.0636      1.00000
     85     -55.0636      1.00000
     86     -55.0636      1.00000
     87     -55.0636      1.00000
     88     -55.0636      1.00000
     89     -55.0636      1.00000
     90     -55.0636      1.00000
     91     -55.0636      1.00000
     92     -55.0636      1.00000
     93     -55.0636      1.00000
     94     -55.0636      1.00000
     95     -55.0636      1.00000
     96     -55.0636      1.00000
     97     -55.0636      1.00000
     98     -55.0636      1.00000
     99     -55.0636      1.00000
    100     -55.0636      1.00000
    101     -55.0636      1.00000
    102     -55.0636      1.00000
    103     -55.0636      1.00000
    104     -55.0636      1.00000
    105     -55.0636      1.00000
    106     -55.0608      1.00000
    107     -55.0608      1.00000
    108     -55.0608      1.00000
    109     -55.0608      1.00000
    110     -55.0608      1.00000
    111     -55.0608      1.00000
    112     -55.0516      1.00000
    113     -55.0516      1.00000
    114     -55.0516      1.00000
    115     -55.0516      1.00000
    116     -55.0516      1.00000
    117     -55.0516      1.00000
    118     -55.0258      1.00000
    119     -55.0258      1.00000
[...]
      1.709625  3.419250  1.709625    -0.109646   -0.059639   -0.006779  
      3.419250  5.128875  1.709625    -0.109646   -0.059639   -0.006779  
      5.128875  6.838500  1.709625    -0.109646   -0.059639   -0.006779  
      1.709625  1.709625  3.419250    -0.109646   -0.059639   -0.006779  
      3.419250  3.419250  3.419250    -0.109646   -0.059639   -0.006779  
      5.128875  5.128875  3.419250    -0.109646   -0.059639   -0.006779  
      6.838500  6.838500  3.419250    -0.109646   -0.059639   -0.006779  
      3.419250  1.709625  5.128875    -0.109646   -0.059639   -0.006779  
      5.128875  3.419250  5.128875    -0.109646   -0.059639   -0.006779  
      6.838500  5.128875  5.128875    -0.109646   -0.059639   -0.006779  
      8.548125  6.838500  5.128875    -0.109646   -0.059639   -0.006779  
      5.128875  1.709625  6.838500    -0.109646   -0.059639   -0.006779  
      6.838500  3.419250  6.838500    -0.109646   -0.059639   -0.006779  
      8.548125  5.128875  6.838500    -0.109646   -0.059639   -0.006779  
     10.257750  6.838500  6.838500    -0.109646   -0.059639   -0.006779  
      0.000000  3.419250  3.419250    -0.109646   -0.059639   -0.006779  
      1.709625  5.128875  3.419250    -0.109646   -0.059639   -0.006779  
      3.419250  6.838500  3.419250    -0.109646   -0.059639   -0.006779  
      5.128875  8.548125  3.419250    -0.109646   -0.059639   -0.006779  
      1.709625  3.419250  5.128875    -0.109646   -0.059639   -0.006779  
      3.419250  5.128875  5.128875    -0.109646   -0.059639   -0.006779  
      5.128875  6.838500  5.128875    -0.109646   -0.059639   -0.006779  
      6.838500  8.548125  5.128875    -0.109646   -0.059639   -0.006779  
      3.419250  3.419250  6.838500    -0.109646   -0.059639   -0.006779  
      5.128875  5.128875  6.838500    -0.109646   -0.059639   -0.006779  
      6.838500  6.838500  6.838500    -0.109646   -0.059639   -0.006779  
      8.548125  8.548125  6.838500    -0.109646   -0.059639   -0.006779  
      5.128875  3.419250  8.548125    -0.109646   -0.059639   -0.006779  
      6.838500  5.128875  8.548125    -0.109646   -0.059639   -0.006779  
      8.548125  6.838500  8.548125    -0.109646   -0.059639   -0.006779  
     10.257750  8.548125  8.548125    -0.109646   -0.059639   -0.006779  
      0.000000  5.128875  5.128875    -0.109646   -0.059639   -0.006779  
      1.709625  6.838500  5.128875    -0.109646   -0.059639   -0.006779  
      3.419250  8.548125  5.128875    -0.109646   -0.059639   -0.006779  
      5.128875 10.257750  5.128875    -0.109646   -0.059639   -0.006779  
      1.709625  5.128875  6.838500    -0.109646   -0.059639   -0.006779  
      3.419250  6.838500  6.838500    -0.109646   -0.059639   -0.006779  
      5.128875  8.548125  6.838500    -0.109646   -0.059639   -0.006779  
      6.838500 10.257750  6.838500    -0.109646   -0.059639   -0.006779  
      3.419250  5.128875  8.548125    -0.109646   -0.059639   -0.006779  
      5.128875  6.838500  8.548125    -0.109646   -0.059639   -0.006779  
      6.838500  8.548125  8.548125    -0.109646   -0.059639   -0.006779  
      8.548125 10.257750  8.548125    -0.109646   -0.059639   -0.006779  
      5.128875  5.128875 10.257750    -0.109646   -0.059639   -0.006779  
      6.838500  6.838500 10.257750    -0.109646   -0.059639   -0.006779  
      8.548125  8.548125 10.257750    -0.109646   -0.059639   -0.006779  
     10.257750 10.257750 10.257750    -0.109646   -0.059639   -0.006779  
 
 192 f  =    0.000000 THz     0.000001 2PiTHz    0.000004 cm-1     0.000000 meV
             X         Y         Z           dx          dy          dz
      0.000000  0.000000  0.000000    -0.059729    0.109807    0.000032  
      1.709625  1.709625  0.000000    -0.059729    0.109807    0.000032  
      3.419250  3.419250  0.000000    -0.059729    0.109807    0.000032  
      5.128875  5.128875  0.000000    -0.059729    0.109807    0.000032  
      1.709625  0.000000  1.709625    -0.059729    0.109807    0.000032  
      3.419250  1.709625  1.709625    -0.059729    0.109807    0.000032  
      5.128875  3.419250  1.709625    -0.059729    0.109807    0.000032  
      6.838500  5.128875  1.709625    -0.059729    0.109807    0.000032  
      3.419250  0.000000  3.419250    -0.059729    0.109807    0.000032  
      5.128875  1.709625  3.419250    -0.059729    0.109807    0.000032  
      6.838500  3.419250  3.419250    -0.059729    0.109807    0.000032  
      8.548125  5.128875  3.419250    -0.059729    0.109807    0.000032  
      5.128875  0.000000  5.128875    -0.059729    0.109807    0.000032  
      6.838500  1.709625  5.128875    -0.059729    0.109807    0.000032  
      8.548125  3.419250  5.128875    -0.059729    0.109807    0.000032  
     10.257750  5.128875  5.128875    -0.059729    0.109807    0.000032  
      0.000000  1.709625  1.709625    -0.059729    0.109807    0.000032  
      1.709625  3.419250  1.709625    -0.059729    0.109807    0.000032  
      3.419250  5.128875  1.709625    -0.059729    0.109807    0.000032  
      5.128875  6.838500  1.709625    -0.059729    0.109807    0.000032  
      1.709625  1.709625  3.419250    -0.059729    0.109807    0.000032  
      3.419250  3.419250  3.419250    -0.059729    0.109807    0.000032  
      5.128875  5.128875  3.419250    -0.059729    0.109807    0.000032  
      6.838500  6.838500  3.419250    -0.059729    0.109807    0.000032  
      3.419250  1.709625  5.128875    -0.059729    0.109807    0.000032  
      5.128875  3.419250  5.128875    -0.059729    0.109807    0.000032  
      6.838500  5.128875  5.128875    -0.059729    0.109807    0.000032  
      8.548125  6.838500  5.128875    -0.059729    0.109807    0.000032  
      5.128875  1.709625  6.838500    -0.059729    0.109807    0.000032  
      6.838500  3.419250  6.838500    -0.059729    0.109807    0.000032  
      8.548125  5.128875  6.838500    -0.059729    0.109807    0.000032  
     10.257750  6.838500  6.838500    -0.059729    0.109807    0.000032  
      0.000000  3.419250  3.419250    -0.059729    0.109807    0.000032  
      1.709625  5.128875  3.419250    -0.059729    0.109807    0.000032  
      3.419250  6.838500  3.419250    -0.059729    0.109807    0.000032  
      5.128875  8.548125  3.419250    -0.059729    0.109807    0.000032  
      1.709625  3.419250  5.128875    -0.059729    0.109807    0.000032  
      3.419250  5.128875  5.128875    -0.059729    0.109807    0.000032  
      5.128875  6.838500  5.128875    -0.059729    0.109807    0.000032  
      6.838500  8.548125  5.128875    -0.059729    0.109807    0.000032  
      3.419250  3.419250  6.838500    -0.059729    0.109807    0.000032  
      5.128875  5.128875  6.838500    -0.059729    0.109807    0.000032  
      6.838500  6.838500  6.838500    -0.059729    0.109807    0.000032  
      8.548125  8.548125  6.838500    -0.059729    0.109807    0.000032  
      5.128875  3.419250  8.548125    -0.059729    0.109807    0.000032  
      6.838500  5.128875  8.548125    -0.059729    0.109807    0.000032  
      8.548125  6.838500  8.548125    -0.059729    0.109807    0.000032  
     10.257750  8.548125  8.548125    -0.059729    0.109807    0.000032  
      0.000000  5.128875  5.128875    -0.059729    0.109807    0.000032  
      1.709625  6.838500  5.128875    -0.059729    0.109807    0.000032  
      3.419250  8.548125  5.128875    -0.059729    0.109807    0.000032  
      5.128875 10.257750  5.128875    -0.059729    0.109807    0.000032  
      1.709625  5.128875  6.838500    -0.059729    0.109807    0.000032  
      3.419250  6.838500  6.838500    -0.059729    0.109807    0.000032  
      5.128875  8.548125  6.838500    -0.059729    0.109807    0.000032  
      6.838500 10.257750  6.838500    -0.059729    0.109807    0.000032  
      3.419250  5.128875  8.548125    -0.059729    0.109807    0.000032  
      5.128875  6.838500  8.548125    -0.059729    0.109807    0.000032  
      6.838500  8.548125  8.548125    -0.059729    0.109807    0.000032  
      8.548125 10.257750  8.548125    -0.059729    0.109807    0.000032  
      5.128875  5.128875 10.257750    -0.059729    0.109807    0.000032  
      6.838500  6.838500 10.257750    -0.059729    0.109807    0.000032  
      8.548125  8.548125 10.257750    -0.059729    0.109807    0.000032  
     10.257750 10.257750 10.257750    -0.059729    0.109807    0.000032  
 

 ELASTIC MODULI CONTR FROM IONIC RELAXATION (kBar)
 Direction    XX          YY          ZZ          XY          YZ          ZX
 --------------------------------------------------------------------------------
 XX          -0.0000     -0.0000     -0.0000     -0.0000      0.0000      0.0000
 YY          -0.0000     -0.0000     -0.0000     -0.0000      0.0000      0.0000
 ZZ          -0.0000     -0.0000     -0.0000     -0.0000      0.0000      0.0000
 XY          -0.0000     -0.0000      0.0000      0.0000     -0.0000      0.0000
 YZ           0.0000      0.0000     -0.0000     -0.0000      0.0000     -0.0000
 ZX           0.0000      0.0000      0.0000      0.0000     -0.0000      0.0000
 --------------------------------------------------------------------------------



--------------------------------------------------------------------------------------------------------


  LATTYP: Found a face centered cubic cell.
 ALAT       =    13.6770000000
  
  Lattice vectors:
  
 A1 = (   0.0000000000,   6.8385000000,   6.8385000000)
 A2 = (   6.8385000000,   0.0000000000,   6.8385000000)
 A3 = (   6.8385000000,   6.8385000000,   0.0000000000)


Analysis of symmetry for initial positions (statically):
=====================================================================
 Subroutine PRICEL returns following result:
 
  LATTYP: Found a face centered cubic cell.
 ALAT       =     3.4192500000
  
  Lattice vectors:
  
 A1 = (   0.0000000000,   1.7096250000,   1.7096250000)
 A2 = (   1.7096250000,   0.0000000000,   1.7096250000)
 A3 = (   1.7096250000,   1.7096250000,   0.0000000000)
 
  64 primitive cells build up your supercell.
 

 Routine SETGRP: Setting up the symmetry group for a 
 face centered cubic supercell.


 Subroutine GETGRP returns: Found 48 space group operations
 (whereof 48 operations were pure point group operations)
 out of a pool of 48 trial point group operations.


The static configuration has the point symmetry O_h .


Analysis of symmetry for dynamics (positions and initial velocities):
=====================================================================
 Subroutine PRICEL returns following result:
 
  LATTYP: Found a face centered cubic cell.
 ALAT       =     3.4192500000
  
  Lattice vectors:
  
 A1 = (   0.0000000000,   1.7096250000,   1.7096250000)
 A2 = (   1.7096250000,   0.0000000000,   1.7096250000)
 A3 = (   1.7096250000,   1.7096250000,   0.0000000000)
 
  64 primitive cells build up your supercell.
 

 Routine SETGRP: Setting up the symmetry group for a 
 face centered cubic supercell.


 Subroutine GETGRP returns: Found 48 space group operations
 (whereof 48 operations were pure point group operations)
 out of a pool of 48 trial point group operations.


The dynamic configuration has the point symmetry O_h .


Analysis of structural, dynamic, and magnetic symmetry:
=====================================================================
 Subroutine PRICEL returns following result:
 
  LATTYP: Found a face centered cubic cell.
 ALAT       =     3.4192500000
  
  Lattice vectors:
  
 A1 = (   0.0000000000,   1.7096250000,   1.7096250000)
 A2 = (   1.7096250000,   0.0000000000,   1.7096250000)
 A3 = (   1.7096250000,   1.7096250000,   0.0000000000)
 
  64 primitive cells build up your supercell.
 

 Routine SETGRP: Setting up the symmetry group for a 
 face centered cubic supercell.


 Subroutine GETGRP returns: Found 48 space group operations
 (whereof 48 operations were pure point group operations)
 out of a pool of 48 trial point group operations.


The magnetic configuration has the point symmetry O_h .


 Subroutine INISYM returns: Found 48 space group operations
 (whereof 48 operations are pure point group operations),
 and found    64 'primitive' translations

 
 KPOINTS: Zr 15x15x15                             

Automatic generation of k-mesh.
Space group operators:
 irot       det(A)        alpha          n_x          n_y          n_z        tau_x        tau_y        tau_z
    1     1.000000     0.000000     1.000000     0.000000     0.000000     0.000000     0.000000     0.000000
    2    -1.000000     0.000000     1.000000     0.000000     0.000000     0.000000     0.000000     0.000000
    3     1.000000   120.000000    -0.577350    -0.577350    -0.577350     0.000000     0.000000     0.000000
    4    -1.000000   120.000000    -0.577350    -0.577350    -0.577350     0.000000     0.000000     0.000000
    5     1.000000   120.000000     0.577350     0.577350     0.577350     0.000000     0.000000     0.000000
    6    -1.000000   120.000000     0.577350     0.577350     0.577350     0.000000     0.000000     0.000000
    7     1.000000    90.000000     0.000000     0.000000    -1.000000     0.000000     0.000000     0.000000
    8    -1.000000    90.000000     0.000000     0.000000    -1.000000     0.000000     0.000000     0.000000
    9     1.000000   180.000000     0.000000     0.707107     0.707107     0.000000     0.000000     0.000000
   10    -1.000000   180.000000     0.000000     0.707107     0.707107     0.000000     0.000000     0.000000
   11     1.000000    90.000000     0.000000     1.000000     0.000000     0.000000     0.000000     0.000000
   12    -1.000000    90.000000     0.000000     1.000000     0.000000     0.000000     0.000000     0.000000
   13     1.000000   180.000000     0.000000     0.000000     1.000000     0.000000     0.000000     0.000000
   14    -1.000000   180.000000     0.000000     0.000000     1.000000     0.000000     0.000000     0.000000
   15     1.000000   120.000000    -0.577350     0.577350     0.577350     0.000000     0.000000     0.000000
   16    -1.000000   120.000000    -0.577350     0.577350     0.577350     0.000000     0.000000     0.000000
   17     1.000000   120.000000    -0.577350     0.577350    -0.577350     0.000000     0.000000     0.000000
   18    -1.000000   120.000000    -0.577350     0.577350    -0.577350     0.000000     0.000000     0.000000
   19     1.000000    90.000000     0.000000     0.000000     1.000000     0.000000     0.000000     0.000000
   20    -1.000000    90.000000     0.000000     0.000000     1.000000     0.000000     0.000000     0.000000
   21     1.000000    90.000000    -1.000000     0.000000     0.000000     0.000000     0.000000     0.000000
   22    -1.000000    90.000000    -1.000000     0.000000     0.000000     0.000000     0.000000     0.000000
   23     1.000000   180.000000     0.707107     0.000000     0.707107     0.000000     0.000000     0.000000
   24    -1.000000   180.000000     0.707107     0.000000     0.707107     0.000000     0.000000     0.000000
   25     1.000000   120.000000     0.577350    -0.577350     0.577350     0.000000     0.000000     0.000000
   26    -1.000000   120.000000     0.577350    -0.577350     0.577350     0.000000     0.000000     0.000000
   27     1.000000   120.000000    -0.577350    -0.577350     0.577350     0.000000     0.000000     0.000000
   28    -1.000000   120.000000    -0.577350    -0.577350     0.577350     0.000000     0.000000     0.000000
   29     1.000000   180.000000     1.000000     0.000000     0.000000     0.000000     0.000000     0.000000
   30    -1.000000   180.000000     1.000000     0.000000     0.000000     0.000000     0.000000     0.000000
   31     1.000000    90.000000     0.000000    -1.000000     0.000000     0.000000     0.000000     0.000000
   32    -1.000000    90.000000     0.000000    -1.000000     0.000000     0.000000     0.000000     0.000000
   33     1.000000   180.000000     0.707107     0.707107     0.000000     0.000000     0.000000     0.000000
   34    -1.000000   180.000000     0.707107     0.707107     0.000000     0.000000     0.000000     0.000000
   35     1.000000    90.000000     1.000000     0.000000     0.000000     0.000000     0.000000     0.000000
   36    -1.000000    90.000000     1.000000     0.000000     0.000000     0.000000     0.000000     0.000000
   37     1.000000   120.000000     0.577350    -0.577350    -0.577350     0.000000     0.000000     0.000000
   38    -1.000000   120.000000     0.577350    -0.577350    -0.577350     0.000000     0.000000     0.000000
   39     1.000000   180.000000     0.000000     1.000000     0.000000     0.000000     0.000000     0.000000
   40    -1.000000   180.000000     0.000000     1.000000     0.000000     0.000000     0.000000     0.000000
   41     1.000000   120.000000     0.577350     0.577350    -0.577350     0.000000     0.000000     0.000000
   42    -1.000000   120.000000     0.577350     0.577350    -0.577350     0.000000     0.000000     0.000000
   43     1.000000   180.000000     0.000000    -0.707107     0.707107     0.000000     0.000000     0.000000
   44    -1.000000   180.000000     0.000000    -0.707107     0.707107     0.000000     0.000000     0.000000
   45     1.000000   180.000000     0.707107    -0.707107     0.000000     0.000000     0.000000     0.000000
   46    -1.000000   180.000000     0.707107    -0.707107     0.000000     0.000000     0.000000     0.000000
   47     1.000000   180.000000     0.707107     0.000000    -0.707107     0.000000     0.000000     0.000000
   48    -1.000000   180.000000     0.707107     0.000000    -0.707107     0.000000     0.000000     0.000000
 
 Subroutine IBZKPT returns following result:
 ===========================================
 
 Found     10 irreducible k-points:
 
 Following reciprocal coordinates:
            Coordinates               Weight
  0.000000  0.000000  0.000000      1.000000
  0.200000  0.000000  0.000000      8.000000
  0.400000  0.000000  0.000000      8.000000
  0.200000  0.200000  0.000000      6.000000
  0.400000  0.200000  0.000000     24.000000
 -0.400000  0.200000  0.000000     24.000000
 -0.200000  0.200000  0.000000     12.000000
  0.400000  0.400000  0.000000      6.000000
 -0.400000  0.400000  0.000000     12.000000
 -0.400000  0.400000  0.200000     24.000000
 
 Following cartesian coordinates:
            Coordinates               Weight
  0.000000  0.000000  0.000000      1.000000
 -0.014623  0.014623  0.014623      8.000000
 -0.029246  0.029246  0.029246      8.000000
  0.000000  0.000000  0.029246      6.000000
 -0.014623  0.014623  0.043869     24.000000
  0.043869 -0.043869 -0.014623     24.000000
  0.029246 -0.029246  0.000000     12.000000
  0.000000  0.000000  0.058492      6.000000
  0.058492 -0.058492  0.000000     12.000000
  0.073115 -0.043869 -0.014623     24.000000
 
 writing wavefunctions
     LOOP+:  cpu time11990.3622: real time11998.5173
    4ORBIT:  cpu time    0.0000: real time    0.0000

 total amount of memory used by VASP on root node   758502. kBytes
========================================================================

   base      :      30000. kBytes
   nonlr-proj:      55429. kBytes
   fftplans  :      18931. kBytes
   grid      :      59310. kBytes
   one-center:       1990. kBytes
   wavefun   :     592842. kBytes
 
  
  
 General timing and accounting informations for this job:
 ========================================================
  
                  Total CPU time used (sec):    28634.758
                            User time (sec):    28569.218
                          System time (sec):       65.540
                         Elapsed time (sec):    28636.733
  
                   Maximum memory used (kb):     2291336.
                   Average memory used (kb):           0.
  
                          Minor page faults:      1421979
                          Major page faults:            0
                 Voluntary context switches:         1472
