<?xml version="1.0" encoding="ISO-8859-1"?>
<modeling>
 <generator>
  <i name="program" type="string">vasp </i>
  <i name="version" type="string">5.4.1  </i>
  <i name="subversion" type="string">05Feb16 (build Oct 12 2016 17:31:35) complex                          parallel </i>
  <i name="platform" type="string">IFC91_ompi </i>
  <i name="date" type="string">2020 09 07 </i>
  <i name="time" type="string">22:42:40 </i>
 </generator>
 <incar>
  <i type="string" name="SYSTEM"> phonon of Zr bcc - omiga</i>
  <i type="string" name="PREC">a</i>
  <i type="int" name="ISPIN">     2</i>
  <i type="int" name="IBRION">     6</i>
  <i name="EDIFF">      0.00000100</i>
  <i type="int" name="NSW">     1</i>
  <v name="MAGMOM">      1.00000000      1.00000000      1.00000000      1.00000000      1.00000000      1.00000000      1.00000000      1.00000000      1.00000000      1.00000000      1.00000000      1.00000000      1.00000000      1.00000000      1.00000000      1.00000000      1.00000000      1.00000000      1.00000000      1.00000000
      1.00000000      1.00000000      1.00000000      1.00000000      1.00000000      1.00000000      1.00000000      1.00000000      1.00000000      1.00000000      1.00000000      1.00000000      1.00000000      1.00000000      1.00000000      1.00000000      1.00000000      1.00000000      1.00000000      1.00000000
      1.00000000      1.00000000      1.00000000      1.00000000      1.00000000      1.00000000      1.00000000      1.00000000      1.00000000      1.00000000      1.00000000      1.00000000      1.00000000      1.00000000      1.00000000      1.00000000      1.00000000      1.00000000      1.00000000      1.00000000
      1.00000000      1.00000000      1.00000000      1.00000000</v>
  <i type="string" name="LREAL">Auto</i>
  <i type="int" name="ISMEAR">     1</i>
  <i type="int" name="NWRITE">     0</i>
  <v type="int" name="KPOINT_BSE">    -1     0     0     0</v>
 </incar>
 <kpoints>
  <generation param="Gamma">
   <v type="int" name="divisions">       5        5        5 </v>
   <v name="usershift">      0.00000000       0.00000000       0.00000000 </v>
   <v name="genvec1">      0.20000000       0.00000000       0.00000000 </v>
   <v name="genvec2">      0.00000000       0.20000000       0.00000000 </v>
   <v name="genvec3">      0.00000000       0.00000000       0.20000000 </v>
   <v name="shift">      0.00000000       0.00000000       0.00000000 </v>
  </generation>
  <varray name="kpointlist" >
   <v>       0.00000000       0.00000000       0.00000000 </v>
   <v>       0.20000000       0.00000000       0.00000000 </v>
   <v>       0.40000000       0.00000000       0.00000000 </v>
   <v>       0.20000000       0.20000000       0.00000000 </v>
   <v>       0.40000000       0.20000000       0.00000000 </v>
   <v>      -0.40000000       0.20000000       0.00000000 </v>
   <v>      -0.20000000       0.20000000       0.00000000 </v>
   <v>       0.40000000       0.40000000       0.00000000 </v>
   <v>      -0.40000000       0.40000000       0.00000000 </v>
   <v>      -0.40000000       0.40000000       0.20000000 </v>
  </varray>
  <varray name="weights" >
   <v>       0.00800000 </v>
   <v>       0.06400000 </v>
   <v>       0.06400000 </v>
   <v>       0.04800000 </v>
   <v>       0.19200000 </v>
   <v>       0.19200000 </v>
   <v>       0.09600000 </v>
   <v>       0.04800000 </v>
   <v>       0.09600000 </v>
   <v>       0.19200000 </v>
  </varray>
 </kpoints>
 <parameters>
  <separator name="general" >
   <i type="string" name="SYSTEM">phonon of Zr bcc - omiga</i>
   <i type="logical" name="LCOMPAT"> F  </i>
  </separator>
  <separator name="electronic" >
   <i type="string" name="PREC">a</i>
   <i name="ENMAX">    367.94500000</i>
   <i name="ENAUG">    703.44300000</i>
   <i name="EDIFF">      0.00000100</i>
   <i type="int" name="IALGO">    38</i>
   <i type="int" name="IWAVPR">    11</i>
   <i type="int" name="NBANDS">   648</i>
   <i name="NELECT">   1024.00000000</i>
   <i type="int" name="TURBO">     0</i>
   <i type="int" name="IRESTART">     0</i>
   <i type="int" name="NREBOOT">     0</i>
   <i type="int" name="NMIN">     0</i>
   <i name="EREF">      0.00000000</i>
   <separator name="electronic smearing" >
    <i type="int" name="ISMEAR">     1</i>
    <i name="SIGMA">      0.20000000</i>
    <i name="KSPACING">      0.50000000</i>
    <i type="logical" name="KGAMMA"> T  </i>
   </separator>
   <separator name="electronic projectors" >
    <i type="logical" name="LREAL"> T  </i>
    <v name="ROPT">     -0.00025000</v>
    <i type="int" name="LMAXPAW">  -100</i>
    <i type="int" name="LMAXMIX">     2</i>
    <i type="logical" name="NLSPLINE"> F  </i>
   </separator>
   <separator name="electronic startup" >
    <i type="int" name="ISTART">     0</i>
    <i type="int" name="ICHARG">     2</i>
    <i type="int" name="INIWAV">     1</i>
   </separator>
   <separator name="electronic spin" >
    <i type="int" name="ISPIN">     2</i>
    <i type="logical" name="LNONCOLLINEAR"> F  </i>
    <v name="MAGMOM">      1.00000000      1.00000000      1.00000000      1.00000000      1.00000000      1.00000000      1.00000000      1.00000000      1.00000000      1.00000000      1.00000000      1.00000000      1.00000000      1.00000000      1.00000000      1.00000000      1.00000000      1.00000000      1.00000000      1.00000000
      1.00000000      1.00000000      1.00000000      1.00000000      1.00000000      1.00000000      1.00000000      1.00000000      1.00000000      1.00000000      1.00000000      1.00000000      1.00000000      1.00000000      1.00000000      1.00000000      1.00000000      1.00000000      1.00000000      1.00000000
      1.00000000      1.00000000      1.00000000      1.00000000      1.00000000      1.00000000      1.00000000      1.00000000      1.00000000      1.00000000      1.00000000      1.00000000      1.00000000      1.00000000      1.00000000      1.00000000      1.00000000      1.00000000      1.00000000      1.00000000
      1.00000000      1.00000000      1.00000000      1.00000000</v>
    <i name="NUPDOWN">     -1.00000000</i>
    <i type="logical" name="LSORBIT"> F  </i>
    <v name="SAXIS">      0.00000000      0.00000000      1.00000000</v>
    <i type="logical" name="LSPIRAL"> F  </i>
    <v name="QSPIRAL">      0.00000000      0.00000000      0.00000000</v>
    <i type="logical" name="LZEROZ"> F  </i>
   </separator>
   <separator name="electronic exchange-correlation" >
    <i type="logical" name="LASPH"> F  </i>
    <i type="logical" name="LMETAGGA"> F  </i>
   </separator>
   <separator name="electronic convergence" >
    <i type="int" name="NELM">    60</i>
    <i type="int" name="NELMDL">     0</i>
    <i type="int" name="NELMIN">     2</i>
    <i name="ENINI">    367.94500000</i>
    <separator name="electronic convergence detail" >
     <i type="logical" name="LDIAG"> T  </i>
     <i type="logical" name="LSUBROT"> F  </i>
     <i name="WEIMIN">      0.00100000</i>
     <i name="EBREAK">      0.00000000</i>
     <i name="DEPER">      0.30000000</i>
     <i type="int" name="NRMM">     4</i>
     <i name="TIME">      0.40000000</i>
    </separator>
   </separator>
   <separator name="electronic mixer" >
    <i name="AMIX">      0.40000000</i>
    <i name="BMIX">      1.00000000</i>
    <i name="AMIN">      0.10000000</i>
    <i name="AMIX_MAG">      1.60000000</i>
    <i name="BMIX_MAG">      1.00000000</i>
    <separator name="electronic mixer details" >
     <i type="int" name="IMIX">     4</i>
     <i type="logical" name="MIXFIRST"> F  </i>
     <i type="int" name="MAXMIX">   -45</i>
     <i name="WC">    100.00000000</i>
     <i type="int" name="INIMIX">     1</i>
     <i type="int" name="MIXPRE">     1</i>
     <i type="int" name="MREMOVE">     5</i>
    </separator>
   </separator>
   <separator name="electronic dipolcorrection" >
    <i type="logical" name="LDIPOL"> F  </i>
    <i type="logical" name="LMONO"> F  </i>
    <i type="int" name="IDIPOL">     0</i>
    <i name="EPSILON">      1.00000000</i>
    <v name="DIPOL">   -100.00000000   -100.00000000   -100.00000000</v>
    <i name="EFIELD">      0.00000000</i>
   </separator>
  </separator>
  <separator name="grids" >
   <i type="int" name="NGX">    64</i>
   <i type="int" name="NGY">    64</i>
   <i type="int" name="NGZ">    64</i>
   <i type="int" name="NGXF">   128</i>
   <i type="int" name="NGYF">   128</i>
   <i type="int" name="NGZF">   128</i>
   <i type="logical" name="ADDGRID"> F  </i>
  </separator>
  <separator name="ionic" >
   <i type="int" name="NSW">   805</i>
   <i type="int" name="IBRION">     6</i>
   <i type="int" name="ISIF">     2</i>
   <i name="PSTRESS">      0.00000000</i>
   <i name="EDIFFG">      0.00001000</i>
   <i type="int" name="NFREE">     2</i>
   <i name="POTIM">      0.50000000</i>
   <i name="SMASS">     -3.00000000</i>
   <i name="SCALEE">      1.00000000</i>
  </separator>
  <separator name="ionic md" >
   <i name="TEBEG">      0.00010000</i>
   <i name="TEEND">      0.00010000</i>
   <i type="int" name="NBLOCK">     1</i>
   <i type="int" name="KBLOCK">     1</i>
   <i type="int" name="NPACO">   256</i>
   <i name="APACO">     16.00000000</i>
  </separator>
  <separator name="symmetry" >
   <i type="int" name="ISYM">     2</i>
   <i name="SYMPREC">      0.00001000</i>
  </separator>
  <separator name="dos" >
   <i type="logical" name="LORBIT"> F  </i>
   <v name="RWIGS">     -1.00000000</v>
   <i type="int" name="NEDOS">   301</i>
   <i name="EMIN">     10.00000000</i>
   <i name="EMAX">    -10.00000000</i>
   <i name="EFERMI">      0.00000000</i>
  </separator>
  <separator name="writing" >
   <i type="int" name="NWRITE">     0</i>
   <i type="logical" name="LWAVE"> T  </i>
   <i type="logical" name="LCHARG"> T  </i>
   <i type="logical" name="LPARD"> F  </i>
   <i type="logical" name="LVTOT"> F  </i>
   <i type="logical" name="LVHAR"> F  </i>
   <i type="logical" name="LELF"> F  </i>
   <i type="logical" name="LOPTICS"> F  </i>
   <v name="STM">      0.00000000      0.00000000      0.00000000      0.00000000      0.00000000      0.00000000      0.00000000</v>
  </separator>
  <separator name="performance" >
   <i type="int" name="NPAR">     4</i>
   <i type="int" name="NSIM">     4</i>
   <i type="int" name="NBLK">    -1</i>
   <i type="logical" name="LPLANE"> T  </i>
   <i type="logical" name="LSCALAPACK"> T  </i>
   <i type="logical" name="LSCAAWARE"> F  </i>
   <i type="logical" name="LSCALU"> F  </i>
   <i type="logical" name="LASYNC"> F  </i>
   <i type="logical" name="LORBITALREAL"> F  </i>
  </separator>
  <separator name="miscellaneous" >
   <i type="int" name="IDIOT">     3</i>
   <i type="logical" name="LMUSIC"> F  </i>
   <v name="POMASS">     58.69000000</v>
   <v name="DARWINR">      0.00000000</v>
   <v name="DARWINV">      1.00000000</v>
   <i type="logical" name="LCORR"> T  </i>
  </separator>
  <i type="logical" name="GGA_COMPAT"> T  </i>
  <i type="logical" name="LBERRY"> F  </i>
  <i type="int" name="ICORELEVEL">     0</i>
  <i type="logical" name="LDAU"> F  </i>
  <i type="int" name="I_CONSTRAINED_M">     0</i>
  <separator name="electronic exchange-correlation" >
   <i type="string" name="GGA">--</i>
   <i type="int" name="VOSKOWN">     0</i>
   <i type="logical" name="LHFCALC"> F  </i>
   <i type="string" name="PRECFOCK"></i>
   <i type="logical" name="LSYMGRAD"> F  </i>
   <i type="logical" name="LHFONE"> F  </i>
   <i type="logical" name="LRHFCALC"> F  </i>
   <i type="logical" name="LTHOMAS"> F  </i>
   <i type="logical" name="LMODELHF"> F  </i>
   <i name="ENCUT4O">     -1.00000000</i>
   <i type="int" name="EXXOEP">     0</i>
   <i type="int" name="FOURORBIT">     0</i>
   <i name="AEXX">      0.00000000</i>
   <i name="HFALPHA">      0.00000000</i>
   <i name="MCALPHA">      0.00000000</i>
   <i name="ALDAX">      1.00000000</i>
   <i name="AGGAX">      1.00000000</i>
   <i name="ALDAC">      1.00000000</i>
   <i name="AGGAC">      1.00000000</i>
   <i type="int" name="NKREDX">     1</i>
   <i type="int" name="NKREDY">     1</i>
   <i type="int" name="NKREDZ">     1</i>
   <i type="logical" name="SHIFTRED"> F  </i>
   <i type="logical" name="ODDONLY"> F  </i>
   <i type="logical" name="EVENONLY"> F  </i>
   <i type="int" name="LMAXFOCK">     0</i>
   <i type="int" name="NMAXFOCKAE">     0</i>
   <i type="logical" name="LFOCKAEDFT"> F  </i>
   <i name="HFSCREEN">      0.00000000</i>
   <i name="HFSCREENC">      0.00000000</i>
   <i type="int" name="NBANDSGWLOW">     0</i>
  </separator>
  <separator name="vdW DFT" >
   <i type="logical" name="LUSE_VDW"> F  </i>
   <i name="Zab_VDW">     -0.84910000</i>
   <i name="PARAM1">      0.12340000</i>
   <i name="PARAM2">      1.00000000</i>
   <i name="PARAM3">      0.00000000</i>
  </separator>
  <separator name="model GW" >
   <i type="int" name="MODEL_GW">     0</i>
   <i name="MODEL_EPS0">      5.99630653</i>
   <i name="MODEL_ALPHA">      1.00000000</i>
  </separator>
  <separator name="linear response parameters" >
   <i type="logical" name="LEPSILON"> F  </i>
   <i type="logical" name="LRPA"> F  </i>
   <i type="logical" name="LNABLA"> F  </i>
   <i type="logical" name="LVEL"> F  </i>
   <i type="int" name="KINTER">     0</i>
   <i name="CSHIFT">      0.10000000</i>
   <i name="OMEGAMAX">     -1.00000000</i>
   <i name="DEG_THRESHOLD">      0.00200000</i>
  </separator>
  <separator name="orbital magnetization" >
   <i type="logical" name="NUCIND"> F  </i>
   <v name="MAGPOS">      0.00000000      0.00000000      0.00000000</v>
   <i type="logical" name="LNICSALL"> T  </i>
   <i type="logical" name="ORBITALMAG"> F  </i>
   <i type="logical" name="LMAGBLOCH"> F  </i>
   <i type="logical" name="LCHIMAG"> F  </i>
   <i type="logical" name="LGAUGE"> T  </i>
   <i type="int" name="MAGATOM">     0</i>
   <v name="MAGDIPOL">      0.00000000      0.00000000      0.00000000</v>
   <v name="AVECCONST">      0.00000000      0.00000000      0.00000000</v>
  </separator>
  <separator name="response functions" >
   <i type="logical" name="LADDER"> F  </i>
   <i type="logical" name="LFXC"> F  </i>
   <i type="logical" name="LHARTREE"> T  </i>
   <i type="int" name="IBSE">     0</i>
   <v type="int" name="KPOINT">    -1     0     0     0</v>
   <i type="logical" name="LTCTE"> F  </i>
   <i type="logical" name="LTETE"> F  </i>
   <i type="logical" name="LTRIPLET"> F  </i>
   <i type="logical" name="LFXCEPS"> F  </i>
   <i type="logical" name="LFXHEG"> F  </i>
   <i type="int" name="NATURALO">     0</i>
   <i type="logical" name="L2ORDER"> F  </i>
   <i type="logical" name="LUSEW"> F  </i>
   <i name="ENCUTGW">     -2.00000000</i>
   <i name="ENCUTGWSOFT">     -2.00000000</i>
   <i name="ENCUTLF">     -1.00000000</i>
   <i type="int" name="LMAXMP2">    -1</i>
   <i name="SCISSOR">      0.00000000</i>
   <i type="int" name="NOMEGA">     0</i>
   <i type="int" name="NOMEGAR">     0</i>
   <i type="int" name="NBANDSGW">    -1</i>
   <i type="int" name="NBANDSO">    -1</i>
   <i type="int" name="NBANDSV">    -1</i>
   <i type="int" name="NELM">     1</i>
   <i type="int" name="NELMHF">     1</i>
   <i type="int" name="DIM">     3</i>
   <i type="int" name="ANTIRES">     0</i>
   <i name="OMEGAMAX">    -30.00000000</i>
   <i name="OMEGAMIN">    -30.00000000</i>
   <i name="OMEGATL">   -200.00000000</i>
   <i type="int" name="OMEGAGRID">     0</i>
   <i name="CSHIFT">     -0.10000000</i>
   <i type="logical" name="SELFENERGY"> F  </i>
   <i type="logical" name="LSPECTRAL"> F  </i>
   <i type="logical" name="LSPECTRALGW"> F  </i>
   <i type="logical" name="LSINGLES"> F  </i>
   <i type="logical" name="LFERMIGW"> F  </i>
   <i type="logical" name="ODDONLYGW"> F  </i>
   <i type="logical" name="EVENONLYGW"> F  </i>
   <i type="int" name="NKREDLFX">     1</i>
   <i type="int" name="NKREDLFY">     1</i>
   <i type="int" name="NKREDLFZ">     1</i>
   <i type="int" name="MAXMEM">  1800</i>
   <i type="int" name="TELESCOPE">     0</i>
   <i type="int" name="TAUPAR">     1</i>
   <i type="int" name="OMEGAPAR">    -1</i>
   <i name="LAMBDA">      1.00000000</i>
  </separator>
  <separator name="External order field" >
   <i name="OFIELD_KAPPA">      0.00000000</i>
   <v name="OFIELD_K">      0.00000000      0.00000000      0.00000000</v>
   <i name="OFIELD_Q6_NEAR">      0.00000000</i>
   <i name="OFIELD_Q6_FAR">      0.00000000</i>
   <i name="OFIELD_A">      0.00000000</i>
  </separator>
 </parameters>
 <atominfo>
  <atoms>      64 </atoms>
  <types>       1 </types>
  <array name="atoms" >
   <dimension dim="1">ion</dimension>
   <field type="string">element</field>
   <field type="int">atomtype</field>
   <set>
    <rc><c>Ni</c><c>   1</c></rc>
    <rc><c>Ni</c><c>   1</c></rc>
    <rc><c>Ni</c><c>   1</c></rc>
    <rc><c>Ni</c><c>   1</c></rc>
    <rc><c>Ni</c><c>   1</c></rc>
    <rc><c>Ni</c><c>   1</c></rc>
    <rc><c>Ni</c><c>   1</c></rc>
    <rc><c>Ni</c><c>   1</c></rc>
    <rc><c>Ni</c><c>   1</c></rc>
    <rc><c>Ni</c><c>   1</c></rc>
    <rc><c>Ni</c><c>   1</c></rc>
    <rc><c>Ni</c><c>   1</c></rc>
    <rc><c>Ni</c><c>   1</c></rc>
    <rc><c>Ni</c><c>   1</c></rc>
    <rc><c>Ni</c><c>   1</c></rc>
    <rc><c>Ni</c><c>   1</c></rc>
    <rc><c>Ni</c><c>   1</c></rc>
    <rc><c>Ni</c><c>   1</c></rc>
    <rc><c>Ni</c><c>   1</c></rc>
    <rc><c>Ni</c><c>   1</c></rc>
    <rc><c>Ni</c><c>   1</c></rc>
    <rc><c>Ni</c><c>   1</c></rc>
    <rc><c>Ni</c><c>   1</c></rc>
    <rc><c>Ni</c><c>   1</c></rc>
    <rc><c>Ni</c><c>   1</c></rc>
    <rc><c>Ni</c><c>   1</c></rc>
    <rc><c>Ni</c><c>   1</c></rc>
    <rc><c>Ni</c><c>   1</c></rc>
    <rc><c>Ni</c><c>   1</c></rc>
    <rc><c>Ni</c><c>   1</c></rc>
    <rc><c>Ni</c><c>   1</c></rc>
    <rc><c>Ni</c><c>   1</c></rc>
    <rc><c>Ni</c><c>   1</c></rc>
    <rc><c>Ni</c><c>   1</c></rc>
    <rc><c>Ni</c><c>   1</c></rc>
    <rc><c>Ni</c><c>   1</c></rc>
    <rc><c>Ni</c><c>   1</c></rc>
    <rc><c>Ni</c><c>   1</c></rc>
    <rc><c>Ni</c><c>   1</c></rc>
    <rc><c>Ni</c><c>   1</c></rc>
    <rc><c>Ni</c><c>   1</c></rc>
    <rc><c>Ni</c><c>   1</c></rc>
    <rc><c>Ni</c><c>   1</c></rc>
    <rc><c>Ni</c><c>   1</c></rc>
    <rc><c>Ni</c><c>   1</c></rc>
    <rc><c>Ni</c><c>   1</c></rc>
    <rc><c>Ni</c><c>   1</c></rc>
    <rc><c>Ni</c><c>   1</c></rc>
    <rc><c>Ni</c><c>   1</c></rc>
    <rc><c>Ni</c><c>   1</c></rc>
    <rc><c>Ni</c><c>   1</c></rc>
    <rc><c>Ni</c><c>   1</c></rc>
    <rc><c>Ni</c><c>   1</c></rc>
    <rc><c>Ni</c><c>   1</c></rc>
    <rc><c>Ni</c><c>   1</c></rc>
    <rc><c>Ni</c><c>   1</c></rc>
    <rc><c>Ni</c><c>   1</c></rc>
    <rc><c>Ni</c><c>   1</c></rc>
    <rc><c>Ni</c><c>   1</c></rc>
    <rc><c>Ni</c><c>   1</c></rc>
    <rc><c>Ni</c><c>   1</c></rc>
    <rc><c>Ni</c><c>   1</c></rc>
    <rc><c>Ni</c><c>   1</c></rc>
    <rc><c>Ni</c><c>   1</c></rc>
   </set>
  </array>
  <array name="atomtypes" >
   <dimension dim="1">type</dimension>
   <field type="int">atomspertype</field>
   <field type="string">element</field>
   <field>mass</field>
   <field>valence</field>
   <field type="string">pseudopotential</field>
   <set>
    <rc><c>  64</c><c>Ni</c><c>     58.69000000</c><c>     16.00000000</c><c> PAW_PBE Ni_pv 06Sep2000                </c></rc>
   </set>
  </array>
 </atominfo>
 <structure name="initialpos" >
  <crystal>
   <varray name="basis" >
    <v>       0.00000000       6.83850000       6.83850000 </v>
    <v>       6.83850000       0.00000000       6.83850000 </v>
    <v>       6.83850000       6.83850000       0.00000000 </v>
   </varray>
   <i name="volume">    639.60602993 </i>
   <varray name="rec_basis" >
    <v>      -0.07311545       0.07311545       0.07311545 </v>
    <v>       0.07311545      -0.07311545       0.07311545 </v>
    <v>       0.07311545       0.07311545      -0.07311545 </v>
   </varray>
  </crystal>
  <varray name="positions" >
   <v>       0.00000000       0.00000000       0.00000000 </v>
   <v>       0.00000000       0.00000000       0.25000000 </v>
   <v>       0.00000000       0.00000000       0.50000000 </v>
   <v>       0.00000000       0.00000000       0.75000000 </v>
   <v>       0.00000000       0.25000000       0.00000000 </v>
   <v>       0.00000000       0.25000000       0.25000000 </v>
   <v>       0.00000000       0.25000000       0.50000000 </v>
   <v>       0.00000000       0.25000000       0.75000000 </v>
   <v>       0.00000000       0.50000000       0.00000000 </v>
   <v>       0.00000000       0.50000000       0.25000000 </v>
   <v>       0.00000000       0.50000000       0.50000000 </v>
   <v>       0.00000000       0.50000000       0.75000000 </v>
   <v>       0.00000000       0.75000000       0.00000000 </v>
   <v>       0.00000000       0.75000000       0.25000000 </v>
   <v>       0.00000000       0.75000000       0.50000000 </v>
   <v>       0.00000000       0.75000000       0.75000000 </v>
   <v>       0.25000000       0.00000000       0.00000000 </v>
   <v>       0.25000000       0.00000000       0.25000000 </v>
   <v>       0.25000000       0.00000000       0.50000000 </v>
   <v>       0.25000000       0.00000000       0.75000000 </v>
   <v>       0.25000000       0.25000000       0.00000000 </v>
   <v>       0.25000000       0.25000000       0.25000000 </v>
   <v>       0.25000000       0.25000000       0.50000000 </v>
   <v>       0.25000000       0.25000000       0.75000000 </v>
   <v>       0.25000000       0.50000000       0.00000000 </v>
   <v>       0.25000000       0.50000000       0.25000000 </v>
   <v>       0.25000000       0.50000000       0.50000000 </v>
   <v>       0.25000000       0.50000000       0.75000000 </v>
   <v>       0.25000000       0.75000000       0.00000000 </v>
   <v>       0.25000000       0.75000000       0.25000000 </v>
   <v>       0.25000000       0.75000000       0.50000000 </v>
   <v>       0.25000000       0.75000000       0.75000000 </v>
   <v>       0.50000000       0.00000000       0.00000000 </v>
   <v>       0.50000000       0.00000000       0.25000000 </v>
   <v>       0.50000000       0.00000000       0.50000000 </v>
   <v>       0.50000000       0.00000000       0.75000000 </v>
   <v>       0.50000000       0.25000000       0.00000000 </v>
   <v>       0.50000000       0.25000000       0.25000000 </v>
   <v>       0.50000000       0.25000000       0.50000000 </v>
   <v>       0.50000000       0.25000000       0.75000000 </v>
   <v>       0.50000000       0.50000000       0.00000000 </v>
   <v>       0.50000000       0.50000000       0.25000000 </v>
   <v>       0.50000000       0.50000000       0.50000000 </v>
   <v>       0.50000000       0.50000000       0.75000000 </v>
   <v>       0.50000000       0.75000000       0.00000000 </v>
   <v>       0.50000000       0.75000000       0.25000000 </v>
   <v>       0.50000000       0.75000000       0.50000000 </v>
   <v>       0.50000000       0.75000000       0.75000000 </v>
   <v>       0.75000000       0.00000000       0.00000000 </v>
   <v>       0.75000000       0.00000000       0.25000000 </v>
   <v>       0.75000000       0.00000000       0.50000000 </v>
   <v>       0.75000000       0.00000000       0.75000000 </v>
   <v>       0.75000000       0.25000000       0.00000000 </v>
   <v>       0.75000000       0.25000000       0.25000000 </v>
   <v>       0.75000000       0.25000000       0.50000000 </v>
   <v>       0.75000000       0.25000000       0.75000000 </v>
   <v>       0.75000000       0.50000000       0.00000000 </v>
   <v>       0.75000000       0.50000000       0.25000000 </v>
   <v>       0.75000000       0.50000000       0.50000000 </v>
   <v>       0.75000000       0.50000000       0.75000000 </v>
   <v>       0.75000000       0.75000000       0.00000000 </v>
   <v>       0.75000000       0.75000000       0.25000000 </v>
   <v>       0.75000000       0.75000000       0.50000000 </v>
   <v>       0.75000000       0.75000000       0.75000000 </v>
  </varray>
 </structure>
 <calculation>
  <scstep>
   <time name="dav">  416.21  415.88</time>
   <time name="total">  417.01  416.69</time>
   <energy>
    <i name="alphaZ">  10788.19976491 </i>
    <i name="ewald">-158176.33604469 </i>
    <i name="hartreedc"> -59049.51858578 </i>
    <i name="XCdc">   5740.20187867 </i>
    <i name="pawpsdc"> 172361.15642774 </i>
    <i name="pawaedc">-181272.45834873 </i>
    <i name="eentropy">     -0.00580403 </i>
    <i name="bandstr">   -191.04524274 </i>
    <i name="atom"> 224013.29143063 </i>
    <i name="e_fr_energy">  14213.48547599 </i>
    <i name="e_wo_entrp">  14213.49128002 </i>
    <i name="e_0_energy">  14213.48741067 </i>
   </energy>
  </scstep>
  <scstep>
   <time name="dav">  374.91  374.60</time>
   <time name="total">  374.92  374.61</time>
   <energy>
    <i name="e_fr_energy">    898.71763946 </i>
    <i name="e_wo_entrp">    898.70313153 </i>
    <i name="e_0_energy">    898.71280348 </i>
   </energy>
  </scstep>
  <scstep>
   <time name="dav">  382.15  381.84</time>
   <time name="total">  382.16  381.85</time>
   <energy>
    <i name="e_fr_energy">   -362.25219730 </i>
    <i name="e_wo_entrp">   -362.24499589 </i>
    <i name="e_0_energy">   -362.24979683 </i>
   </energy>
  </scstep>
  <scstep>
   <time name="dav">  395.48  395.16</time>
   <time name="total">  395.49  395.17</time>
   <energy>
    <i name="e_fr_energy">   -425.61783476 </i>
    <i name="e_wo_entrp">   -425.60899756 </i>
    <i name="e_0_energy">   -425.61488903 </i>
   </energy>
  </scstep>
  <scstep>
   <time name="dav">  391.72  391.39</time>
   <time name="total">  406.56  406.23</time>
   <energy>
    <i name="e_fr_energy">   -426.54546875 </i>
    <i name="e_wo_entrp">   -426.53687580 </i>
    <i name="e_0_energy">   -426.54260443 </i>
   </energy>
  </scstep>
  <scstep>
   <time name="dav">  389.29  388.97</time>
   <time name="total">  404.47  404.14</time>
   <energy>
    <i name="e_fr_energy">   -385.07543028 </i>
    <i name="e_wo_entrp">   -384.85479238 </i>
    <i name="e_0_energy">   -385.00188432 </i>
   </energy>
  </scstep>
  <scstep>
   <time name="dav">  387.60  387.28</time>
   <time name="total">  402.80  402.47</time>
   <energy>
    <i name="e_fr_energy">   -364.66061201 </i>
    <i name="e_wo_entrp">   -364.59315943 </i>
    <i name="e_0_energy">   -364.63812782 </i>
   </energy>
  </scstep>
  <scstep>
   <time name="dav">  394.87  394.54</time>
   <time name="total">  410.36  410.02</time>
   <energy>
    <i name="e_fr_energy">   -364.58918792 </i>
    <i name="e_wo_entrp">   -364.51496405 </i>
    <i name="e_0_energy">   -364.56444663 </i>
   </energy>
  </scstep>
  <scstep>
   <time name="dav">  396.90  396.57</time>
   <time name="total">  412.17  411.83</time>
   <energy>
    <i name="e_fr_energy">   -364.48268447 </i>
    <i name="e_wo_entrp">   -364.40469390 </i>
    <i name="e_0_energy">   -364.45668761 </i>
   </energy>
  </scstep>
  <scstep>
   <time name="dav">  410.51  410.17</time>
   <time name="total">  426.47  426.12</time>
   <energy>
    <i name="e_fr_energy">   -364.48589752 </i>
    <i name="e_wo_entrp">   -364.40851392 </i>
    <i name="e_0_energy">   -364.46010299 </i>
   </energy>
  </scstep>
  <scstep>
   <time name="dav">  396.64  396.31</time>
   <time name="total">  413.08  412.74</time>
   <energy>
    <i name="e_fr_energy">   -364.48864481 </i>
    <i name="e_wo_entrp">   -364.41122203 </i>
    <i name="e_0_energy">   -364.46283722 </i>
   </energy>
  </scstep>
  <scstep>
   <time name="dav">  389.70  389.38</time>
   <time name="total">  406.11  405.77</time>
   <energy>
    <i name="e_fr_energy">   -364.48869086 </i>
    <i name="e_wo_entrp">   -364.41072093 </i>
    <i name="e_0_energy">   -364.46270088 </i>
   </energy>
  </scstep>
  <scstep>
   <time name="dav">  339.69  339.41</time>
   <time name="total">  355.71  355.41</time>
   <energy>
    <i name="e_fr_energy">   -364.48870006 </i>
    <i name="e_wo_entrp">   -364.41062385 </i>
    <i name="e_0_energy">   -364.46267466 </i>
   </energy>
  </scstep>
  <scstep>
   <time name="dav">  332.49  332.22</time>
   <time name="total">  347.43  347.14</time>
   <energy>
    <i name="e_fr_energy">   -364.48867322 </i>
    <i name="e_wo_entrp">   -364.41066052 </i>
    <i name="e_0_energy">   -364.46266899 </i>
   </energy>
  </scstep>
  <scstep>
   <time name="dav">  233.04  232.85</time>
   <time name="total">  247.71  247.51</time>
   <energy>
    <i name="e_fr_energy">   -364.48866842 </i>
    <i name="e_wo_entrp">   -364.41067229 </i>
    <i name="e_0_energy">   -364.46266971 </i>
   </energy>
  </scstep>
  <scstep>
   <time name="dav">  228.13  227.94</time>
   <time name="total">  228.93  228.74</time>
   <energy>
    <i name="alphaZ">  10788.19976491 </i>
    <i name="ewald">-158176.33604469 </i>
    <i name="hartreedc"> -56680.84248235 </i>
    <i name="XCdc">   5647.95721184 </i>
    <i name="pawpsdc"> 173492.46522181 </i>
    <i name="pawaedc">-182560.90682161 </i>
    <i name="eentropy">     -0.07799637 </i>
    <i name="bandstr"> -16888.23895298 </i>
    <i name="atom"> 224013.29143063 </i>
    <i name="e_fr_energy">   -364.48866881 </i>
    <i name="e_wo_entrp">   -364.41067245 </i>
    <i name="e_0_energy">   -364.46267002 </i>
   </energy>
  </scstep>
  <structure>
   <crystal>
    <varray name="basis" >
     <v>       0.00000000       6.83850000       6.83850000 </v>
     <v>       6.83850000       0.00000000       6.83850000 </v>
     <v>       6.83850000       6.83850000       0.00000000 </v>
    </varray>
    <i name="volume">    639.60602993 </i>
    <varray name="rec_basis" >
     <v>      -0.07311545       0.07311545       0.07311545 </v>
     <v>       0.07311545      -0.07311545       0.07311545 </v>
     <v>       0.07311545       0.07311545      -0.07311545 </v>
    </varray>
   </crystal>
   <varray name="positions" >
    <v>       0.00000000       0.00000000       0.00000000 </v>
    <v>       0.00000000       0.00000000       0.25000000 </v>
    <v>       0.00000000       0.00000000       0.50000000 </v>
    <v>       0.00000000       0.00000000       0.75000000 </v>
    <v>       0.00000000       0.25000000       0.00000000 </v>
    <v>       0.00000000       0.25000000       0.25000000 </v>
    <v>       0.00000000       0.25000000       0.50000000 </v>
    <v>       0.00000000       0.25000000       0.75000000 </v>
    <v>       0.00000000       0.50000000       0.00000000 </v>
    <v>       0.00000000       0.50000000       0.25000000 </v>
    <v>       0.00000000       0.50000000       0.50000000 </v>
    <v>       0.00000000       0.50000000       0.75000000 </v>
    <v>       0.00000000       0.75000000       0.00000000 </v>
    <v>       0.00000000       0.75000000       0.25000000 </v>
    <v>       0.00000000       0.75000000       0.50000000 </v>
    <v>       0.00000000       0.75000000       0.75000000 </v>
    <v>       0.25000000       0.00000000       0.00000000 </v>
    <v>       0.25000000       0.00000000       0.25000000 </v>
    <v>       0.25000000       0.00000000       0.50000000 </v>
    <v>       0.25000000       0.00000000       0.75000000 </v>
    <v>       0.25000000       0.25000000       0.00000000 </v>
    <v>       0.25000000       0.25000000       0.25000000 </v>
    <v>       0.25000000       0.25000000       0.50000000 </v>
    <v>       0.25000000       0.25000000       0.75000000 </v>
    <v>       0.25000000       0.50000000       0.00000000 </v>
    <v>       0.25000000       0.50000000       0.25000000 </v>
    <v>       0.25000000       0.50000000       0.50000000 </v>
    <v>       0.25000000       0.50000000       0.75000000 </v>
    <v>       0.25000000       0.75000000       0.00000000 </v>
    <v>       0.25000000       0.75000000       0.25000000 </v>
    <v>       0.25000000       0.75000000       0.50000000 </v>
    <v>       0.25000000       0.75000000       0.75000000 </v>
    <v>       0.50000000       0.00000000       0.00000000 </v>
    <v>       0.50000000       0.00000000       0.25000000 </v>
    <v>       0.50000000       0.00000000       0.50000000 </v>
    <v>       0.50000000       0.00000000       0.75000000 </v>
    <v>       0.50000000       0.25000000       0.00000000 </v>
    <v>       0.50000000       0.25000000       0.25000000 </v>
    <v>       0.50000000       0.25000000       0.50000000 </v>
    <v>       0.50000000       0.25000000       0.75000000 </v>
    <v>       0.50000000       0.50000000       0.00000000 </v>
    <v>       0.50000000       0.50000000       0.25000000 </v>
    <v>       0.50000000       0.50000000       0.50000000 </v>
    <v>       0.50000000       0.50000000       0.75000000 </v>
    <v>       0.50000000       0.75000000       0.00000000 </v>
    <v>       0.50000000       0.75000000       0.25000000 </v>
    <v>       0.50000000       0.75000000       0.50000000 </v>
    <v>       0.50000000       0.75000000       0.75000000 </v>
    <v>       0.75000000       0.00000000       0.00000000 </v>
    <v>       0.75000000       0.00000000       0.25000000 </v>
    <v>       0.75000000       0.00000000       0.50000000 </v>
    <v>       0.75000000       0.00000000       0.75000000 </v>
    <v>       0.75000000       0.25000000       0.00000000 </v>
    <v>       0.75000000       0.25000000       0.25000000 </v>
    <v>       0.75000000       0.25000000       0.50000000 </v>
    <v>       0.75000000       0.25000000       0.75000000 </v>
    <v>       0.75000000       0.50000000       0.00000000 </v>
    <v>       0.75000000       0.50000000       0.25000000 </v>
    <v>       0.75000000       0.50000000       0.50000000 </v>
    <v>       0.75000000       0.50000000       0.75000000 </v>
    <v>       0.75000000       0.75000000       0.00000000 </v>
    <v>       0.75000000       0.75000000       0.25000000 </v>
    <v>       0.75000000       0.75000000       0.50000000 </v>
    <v>       0.75000000       0.75000000       0.75000000 </v>
   </varray>
  </structure>
  <varray name="forces" >
   <v>       0.00000000       0.00000000      -0.00000000 </v>
   <v>       0.00000000       0.00000000      -0.00000000 </v>
   <v>      -0.00000000       0.00000000       0.00000000 </v>
   <v>      -0.00000000       0.00000000       0.00000000 </v>
   <v>       0.00000000      -0.00000000      -0.00000000 </v>
   <v>      -0.00000000       0.00000000      -0.00000000 </v>
   <v>      -0.00000000      -0.00000000       0.00000000 </v>
   <v>       0.00000000       0.00000000       0.00000000 </v>
   <v>      -0.00000000       0.00000000       0.00000000 </v>
   <v>       0.00000000       0.00000000       0.00000000 </v>
   <v>       0.00000000      -0.00000000      -0.00000000 </v>
   <v>       0.00000000      -0.00000000      -0.00000000 </v>
   <v>       0.00000000      -0.00000000      -0.00000000 </v>
   <v>       0.00000000       0.00000000      -0.00000000 </v>
   <v>      -0.00000000       0.00000000       0.00000000 </v>
   <v>       0.00000000      -0.00000000       0.00000000 </v>
   <v>       0.00000000       0.00000000      -0.00000000 </v>
   <v>      -0.00000000      -0.00000000      -0.00000000 </v>
   <v>      -0.00000000       0.00000000      -0.00000000 </v>
   <v>       0.00000000       0.00000000       0.00000000 </v>
   <v>       0.00000000       0.00000000      -0.00000000 </v>
   <v>       0.00000000      -0.00000000      -0.00000000 </v>
   <v>      -0.00000000      -0.00000000       0.00000000 </v>
   <v>       0.00000000       0.00000000       0.00000000 </v>
   <v>      -0.00000000       0.00000000      -0.00000000 </v>
   <v>       0.00000000       0.00000000       0.00000000 </v>
   <v>      -0.00000000       0.00000000       0.00000000 </v>
   <v>       0.00000000       0.00000000       0.00000000 </v>
   <v>      -0.00000000      -0.00000000      -0.00000000 </v>
   <v>       0.00000000       0.00000000      -0.00000000 </v>
   <v>      -0.00000000       0.00000000       0.00000000 </v>
   <v>      -0.00000000      -0.00000000       0.00000000 </v>
   <v>      -0.00000000      -0.00000000      -0.00000000 </v>
   <v>       0.00000000      -0.00000000      -0.00000000 </v>
   <v>      -0.00000000      -0.00000000       0.00000000 </v>
   <v>      -0.00000000       0.00000000       0.00000000 </v>
   <v>       0.00000000      -0.00000000      -0.00000000 </v>
   <v>      -0.00000000      -0.00000000      -0.00000000 </v>
   <v>      -0.00000000      -0.00000000       0.00000000 </v>
   <v>       0.00000000       0.00000000       0.00000000 </v>
   <v>      -0.00000000      -0.00000000      -0.00000000 </v>
   <v>       0.00000000       0.00000000       0.00000000 </v>
   <v>      -0.00000000       0.00000000       0.00000000 </v>
   <v>      -0.00000000       0.00000000      -0.00000000 </v>
   <v>       0.00000000      -0.00000000      -0.00000000 </v>
   <v>      -0.00000000       0.00000000       0.00000000 </v>
   <v>       0.00000000       0.00000000       0.00000000 </v>
   <v>      -0.00000000      -0.00000000       0.00000000 </v>
   <v>      -0.00000000       0.00000000       0.00000000 </v>
   <v>       0.00000000      -0.00000000      -0.00000000 </v>
   <v>      -0.00000000      -0.00000000       0.00000000 </v>
   <v>       0.00000000       0.00000000       0.00000000 </v>
   <v>      -0.00000000       0.00000000      -0.00000000 </v>
   <v>      -0.00000000      -0.00000000      -0.00000000 </v>
   <v>      -0.00000000      -0.00000000       0.00000000 </v>
   <v>      -0.00000000      -0.00000000       0.00000000 </v>
   <v>      -0.00000000       0.00000000      -0.00000000 </v>
   <v>       0.00000000       0.00000000       0.00000000 </v>
   <v>      -0.00000000      -0.00000000       0.00000000 </v>
   <v>      -0.00000000       0.00000000       0.00000000 </v>
   <v>       0.00000000      -0.00000000      -0.00000000 </v>
   <v>       0.00000000      -0.00000000      -0.00000000 </v>
   <v>      -0.00000000      -0.00000000       0.00000000 </v>
   <v>      -0.00000000      -0.00000000      -0.00000000 </v>
  </varray>
  <varray name="stress" >
   <v>      51.84515548      -0.00000000      -0.00000000 </v>
   <v>       0.00000000      51.84515548      -0.00000000 </v>
   <v>       0.00000000       0.00000000      51.84515548 </v>
  </varray>
  <energy>
   <i name="e_fr_energy">   -364.48866881 </i>
   <i name="e_wo_entrp">   -364.46267002 </i>
   <i name="e_0_energy">     -0.07799637 </i>
  </energy>
  <kpoints>
   <generation param="Gamma">
    <v type="int" name="divisions">       5        5        5 </v>
    <v name="usershift">      0.00000000       0.00000000       0.00000000 </v>
    <v name="genvec1">      0.20000000       0.00000000       0.00000000 </v>
    <v name="genvec2">      0.00000000       0.20000000       0.00000000 </v>
    <v name="genvec3">      0.00000000       0.00000000       0.20000000 </v>
    <v name="shift">      0.00000000       0.00000000       0.00000000 </v>
   </generation>
   <varray name="kpointlist" >
    <v>       0.00000000       0.00000000       0.00000000 </v>
    <v>       0.20000000       0.00000000       0.00000000 </v>
    <v>       0.40000000       0.00000000       0.00000000 </v>
    <v>       0.20000000       0.20000000       0.00000000 </v>
    <v>       0.40000000       0.20000000       0.00000000 </v>
    <v>      -0.40000000       0.20000000       0.00000000 </v>
    <v>      -0.20000000       0.20000000       0.00000000 </v>
    <v>       0.40000000       0.40000000       0.00000000 </v>
    <v>      -0.40000000       0.40000000       0.00000000 </v>
    <v>       0.00000000       0.20000000       0.20000000 </v>
    <v>       0.40000000       0.20000000       0.20000000 </v>
    <v>      -0.40000000       0.20000000       0.20000000 </v>
    <v>      -0.20000000       0.20000000       0.20000000 </v>
    <v>      -0.40000000       0.40000000       0.20000000 </v>
    <v>      -0.20000000       0.40000000       0.20000000 </v>
    <v>       0.40000000      -0.40000000       0.20000000 </v>
    <v>       0.00000000       0.40000000       0.40000000 </v>
    <v>      -0.20000000       0.40000000       0.40000000 </v>
   </varray>
   <varray name="weights" >
    <v>       0.00800000 </v>
    <v>       0.06400000 </v>
    <v>       0.06400000 </v>
    <v>       0.03200000 </v>
    <v>       0.12800000 </v>
    <v>       0.12800000 </v>
    <v>       0.06400000 </v>
    <v>       0.03200000 </v>
    <v>       0.06400000 </v>
    <v>       0.01600000 </v>
    <v>       0.03200000 </v>
    <v>       0.06400000 </v>
    <v>       0.06400000 </v>
    <v>       0.06400000 </v>
    <v>       0.06400000 </v>
    <v>       0.06400000 </v>
    <v>       0.01600000 </v>
    <v>       0.03200000 </v>
   </varray>
  </kpoints>
  <time name="totalsc"> 6524.36 6519.83</time>
 </calculation>
 <calculation>
  <scstep>
   <time name="dav">  761.38  760.75</time>
   <time name="total">  784.77  784.13</time>
   <energy>
    <i name="alphaZ">  10788.19976491 </i>
    <i name="ewald">-158176.16494181 </i>
    <i name="hartreedc"> -56681.00766019 </i>
    <i name="XCdc">   5647.95807482 </i>
    <i name="pawpsdc"> 173492.28490448 </i>
    <i name="pawaedc">-182560.73385644 </i>
    <i name="eentropy">     -0.07797444 </i>
    <i name="bandstr"> -16888.16533651 </i>
    <i name="atom"> 224013.29143063 </i>
    <i name="e_fr_energy">   -364.41559457 </i>
    <i name="e_wo_entrp">   -364.33762013 </i>
    <i name="e_0_energy">   -364.38960309 </i>
   </energy>
  </scstep>
  <scstep>
   <time name="dav">  628.35  627.83</time>
   <time name="total">  651.77  651.23</time>
   <energy>
    <i name="e_fr_energy">   -364.48790399 </i>
    <i name="e_wo_entrp">   -364.40997317 </i>
    <i name="e_0_energy">   -364.46192705 </i>
   </energy>
  </scstep>
  <scstep>
   <time name="dav">  719.75  719.16</time>
   <time name="total">  743.23  742.62</time>
   <energy>
    <i name="e_fr_energy">   -364.48879219 </i>
    <i name="e_wo_entrp">   -364.41080091 </i>
    <i name="e_0_energy">   -364.46279509 </i>
   </energy>
  </scstep>
  <scstep>
   <time name="dav">  740.22  739.61</time>
   <time name="total">  763.68  763.06</time>
   <energy>
    <i name="e_fr_energy">   -364.48823451 </i>
    <i name="e_wo_entrp">   -364.41026956 </i>
    <i name="e_0_energy">   -364.46224620 </i>
   </energy>
  </scstep>
  <scstep>
   <time name="dav">  669.28  668.73</time>
   <time name="total">  692.65  692.08</time>
   <energy>
    <i name="e_fr_energy">   -364.48738208 </i>
    <i name="e_wo_entrp">   -364.40940156 </i>
    <i name="e_0_energy">   -364.46138857 </i>
   </energy>
  </scstep>
  <scstep>
   <time name="dav">  741.61  741.00</time>
   <time name="total">  765.08  764.45</time>
   <energy>
    <i name="e_fr_energy">   -364.48736536 </i>
    <i name="e_wo_entrp">   -364.40938279 </i>
    <i name="e_0_energy">   -364.46137117 </i>
   </energy>
  </scstep>
  <scstep>
   <time name="dav">  676.92  676.36</time>
   <time name="total">  700.62  700.04</time>
   <energy>
    <i name="e_fr_energy">   -364.48730944 </i>
    <i name="e_wo_entrp">   -364.40932798 </i>
    <i name="e_0_energy">   -364.46131562 </i>
   </energy>
  </scstep>
  <scstep>
   <time name="dav">  695.37  694.79</time>
   <time name="total">  718.93  718.34</time>
   <energy>
    <i name="e_fr_energy">   -364.48729757 </i>
    <i name="e_wo_entrp">   -364.40931582 </i>
    <i name="e_0_energy">   -364.46130366 </i>
   </energy>
  </scstep>
  <scstep>
   <time name="dav">  751.39  750.77</time>
   <time name="total">  774.18  773.54</time>
   <energy>
    <i name="e_fr_energy">   -364.48726561 </i>
    <i name="e_wo_entrp">   -364.40928348 </i>
    <i name="e_0_energy">   -364.46127157 </i>
   </energy>
  </scstep>
  <scstep>
   <time name="dav">  744.77  744.16</time>
   <time name="total">  766.39  765.76</time>
   <energy>
    <i name="e_fr_energy">   -364.48721199 </i>
    <i name="e_wo_entrp">   -364.40922957 </i>
    <i name="e_0_energy">   -364.46121785 </i>
   </energy>
  </scstep>
  <scstep>
   <time name="dav">  778.20  777.56</time>
   <time name="total">  801.82  801.16</time>
   <energy>
    <i name="e_fr_energy">   -364.48721718 </i>
    <i name="e_wo_entrp">   -364.40923536 </i>
    <i name="e_0_energy">   -364.46122324 </i>
   </energy>
  </scstep>
  <scstep>
   <time name="dav">  646.97  646.44</time>
   <time name="total">  670.37  669.82</time>
   <energy>
    <i name="e_fr_energy">   -364.48721349 </i>
    <i name="e_wo_entrp">   -364.40923332 </i>
    <i name="e_0_energy">   -364.46122010 </i>
   </energy>
  </scstep>
  <scstep>
   <time name="dav">  393.47  393.14</time>
   <time name="total">  394.28  393.96</time>
   <energy>
    <i name="alphaZ">  10788.19976491 </i>
    <i name="ewald">-158176.16494181 </i>
    <i name="hartreedc"> -56681.00461123 </i>
    <i name="XCdc">   5647.95774392 </i>
    <i name="pawpsdc"> 173492.23185250 </i>
    <i name="pawaedc">-182560.68270313 </i>
    <i name="eentropy">     -0.07798027 </i>
    <i name="bandstr"> -16888.23776905 </i>
    <i name="atom"> 224013.29143063 </i>
    <i name="e_fr_energy">   -364.48721352 </i>
    <i name="e_wo_entrp">   -364.40923325 </i>
    <i name="e_0_energy">   -364.46122010 </i>
   </energy>
  </scstep>
  <structure>
   <crystal>
    <varray name="basis" >
     <v>       0.00000000       6.83850000       6.83850000 </v>
     <v>       6.83850000       0.00000000       6.83850000 </v>
     <v>       6.83850000       6.83850000       0.00000000 </v>
    </varray>
    <i name="volume">    639.60602993 </i>
    <varray name="rec_basis" >
     <v>      -0.07311545       0.07311545       0.07311545 </v>
     <v>       0.07311545      -0.07311545       0.07311545 </v>
     <v>       0.07311545       0.07311545      -0.07311545 </v>
    </varray>
   </crystal>
   <varray name="positions" >
    <v>      -0.00109673       0.00109673       0.00109673 </v>
    <v>       0.00000000       0.00000000       0.25000000 </v>
    <v>       0.00000000       0.00000000       0.50000000 </v>
    <v>       0.00000000       0.00000000       0.75000000 </v>
    <v>       0.00000000       0.25000000       0.00000000 </v>
    <v>       0.00000000       0.25000000       0.25000000 </v>
    <v>       0.00000000       0.25000000       0.50000000 </v>
    <v>       0.00000000       0.25000000       0.75000000 </v>
    <v>       0.00000000       0.50000000       0.00000000 </v>
    <v>       0.00000000       0.50000000       0.25000000 </v>
    <v>       0.00000000       0.50000000       0.50000000 </v>
    <v>       0.00000000       0.50000000       0.75000000 </v>
    <v>       0.00000000       0.75000000       0.00000000 </v>
    <v>       0.00000000       0.75000000       0.25000000 </v>
    <v>       0.00000000       0.75000000       0.50000000 </v>
    <v>       0.00000000       0.75000000       0.75000000 </v>
    <v>       0.25000000       0.00000000       0.00000000 </v>
    <v>       0.25000000       0.00000000       0.25000000 </v>
    <v>       0.25000000       0.00000000       0.50000000 </v>
    <v>       0.25000000       0.00000000       0.75000000 </v>
    <v>       0.25000000       0.25000000       0.00000000 </v>
    <v>       0.25000000       0.25000000       0.25000000 </v>
    <v>       0.25000000       0.25000000       0.50000000 </v>
    <v>       0.25000000       0.25000000       0.75000000 </v>
    <v>       0.25000000       0.50000000       0.00000000 </v>
    <v>       0.25000000       0.50000000       0.25000000 </v>
    <v>       0.25000000       0.50000000       0.50000000 </v>
    <v>       0.25000000       0.50000000       0.75000000 </v>
    <v>       0.25000000       0.75000000       0.00000000 </v>
    <v>       0.25000000       0.75000000       0.25000000 </v>
    <v>       0.25000000       0.75000000       0.50000000 </v>
    <v>       0.25000000       0.75000000       0.75000000 </v>
    <v>       0.50000000       0.00000000       0.00000000 </v>
    <v>       0.50000000       0.00000000       0.25000000 </v>
    <v>       0.50000000       0.00000000       0.50000000 </v>
    <v>       0.50000000       0.00000000       0.75000000 </v>
    <v>       0.50000000       0.25000000       0.00000000 </v>
    <v>       0.50000000       0.25000000       0.25000000 </v>
    <v>       0.50000000       0.25000000       0.50000000 </v>
    <v>       0.50000000       0.25000000       0.75000000 </v>
    <v>       0.50000000       0.50000000       0.00000000 </v>
    <v>       0.50000000       0.50000000       0.25000000 </v>
    <v>       0.50000000       0.50000000       0.50000000 </v>
    <v>       0.50000000       0.50000000       0.75000000 </v>
    <v>       0.50000000       0.75000000       0.00000000 </v>
    <v>       0.50000000       0.75000000       0.25000000 </v>
    <v>       0.50000000       0.75000000       0.50000000 </v>
    <v>       0.50000000       0.75000000       0.75000000 </v>
    <v>       0.75000000       0.00000000       0.00000000 </v>
    <v>       0.75000000       0.00000000       0.25000000 </v>
    <v>       0.75000000       0.00000000       0.50000000 </v>
    <v>       0.75000000       0.00000000       0.75000000 </v>
    <v>       0.75000000       0.25000000       0.00000000 </v>
    <v>       0.75000000       0.25000000       0.25000000 </v>
    <v>       0.75000000       0.25000000       0.50000000 </v>
    <v>       0.75000000       0.25000000       0.75000000 </v>
    <v>       0.75000000       0.50000000       0.00000000 </v>
    <v>       0.75000000       0.50000000       0.25000000 </v>
    <v>       0.75000000       0.50000000       0.50000000 </v>
    <v>       0.75000000       0.50000000       0.75000000 </v>
    <v>       0.75000000       0.75000000       0.00000000 </v>
    <v>       0.75000000       0.75000000       0.25000000 </v>
    <v>       0.75000000       0.75000000       0.50000000 </v>
    <v>       0.75000000       0.75000000       0.75000000 </v>
   </varray>
  </structure>
  <varray name="forces" >
   <v>      -0.19660237      -0.00000000       0.00000000 </v>
   <v>       0.02383469       0.02781266       0.00000000 </v>
   <v>      -0.00011656      -0.00034823       0.00000000 </v>
   <v>       0.02281042       0.02633514       0.00000000 </v>
   <v>       0.02383469      -0.00000000       0.02781266 </v>
   <v>       0.00137099       0.00080749       0.00080749 </v>
   <v>       0.00027878       0.00087963      -0.00041433 </v>
   <v>      -0.00148823       0.00014913      -0.00014913 </v>
   <v>      -0.00011656      -0.00000000      -0.00034823 </v>
   <v>       0.00027878      -0.00041433       0.00087963 </v>
   <v>       0.00000180      -0.00000000       0.00000000 </v>
   <v>       0.00028655      -0.00042744       0.00073153 </v>
   <v>       0.02281042      -0.00000000       0.02633514 </v>
   <v>      -0.00148823      -0.00014913       0.00014913 </v>
   <v>       0.00028655       0.00073153      -0.00042744 </v>
   <v>       0.00150361       0.00078293       0.00078293 </v>
   <v>      -0.00148823      -0.00014913      -0.00014913 </v>
   <v>       0.00028655       0.00073153       0.00042744 </v>
   <v>       0.00150361       0.00078293      -0.00078293 </v>
   <v>       0.02281042      -0.00000000      -0.02633514 </v>
   <v>       0.00028655       0.00042744       0.00073153 </v>
   <v>       0.00001067      -0.00000000       0.00000000 </v>
   <v>       0.00027878       0.00041433      -0.00087963 </v>
   <v>      -0.00055676      -0.00000000      -0.00013601 </v>
   <v>       0.00150361      -0.00078293       0.00078293 </v>
   <v>       0.00027878      -0.00087963       0.00041433 </v>
   <v>      -0.00046271      -0.00007478      -0.00007478 </v>
   <v>       0.00014003      -0.00000000      -0.00024840 </v>
   <v>       0.02281042      -0.02633514       0.00000000 </v>
   <v>      -0.00055676      -0.00013601       0.00000000 </v>
   <v>       0.00014003      -0.00024840       0.00000000 </v>
   <v>       0.00244455      -0.00000000       0.00000000 </v>
   <v>       0.00000180      -0.00000000       0.00000000 </v>
   <v>       0.00028655      -0.00042744      -0.00073153 </v>
   <v>      -0.00011656      -0.00000000       0.00034823 </v>
   <v>       0.00027878      -0.00041433      -0.00087963 </v>
   <v>       0.00028655      -0.00073153      -0.00042744 </v>
   <v>       0.00137099      -0.00080749      -0.00080749 </v>
   <v>      -0.00002719      -0.00000000       0.00008850 </v>
   <v>      -0.00046271       0.00007478      -0.00007478 </v>
   <v>      -0.00011656       0.00034823       0.00000000 </v>
   <v>      -0.00002719       0.00008850       0.00000000 </v>
   <v>      -0.00059640      -0.00000000       0.00000000 </v>
   <v>       0.00014003       0.00024840       0.00000000 </v>
   <v>       0.00027878      -0.00087963      -0.00041433 </v>
   <v>      -0.00046271      -0.00007478       0.00007478 </v>
   <v>       0.00014003      -0.00000000       0.00024840 </v>
   <v>       0.00150361      -0.00078293      -0.00078293 </v>
   <v>      -0.00148823       0.00014913       0.00014913 </v>
   <v>       0.02383469      -0.00000000      -0.02781266 </v>
   <v>       0.00137099       0.00080749      -0.00080749 </v>
   <v>       0.00027878       0.00087963       0.00041433 </v>
   <v>       0.02383469      -0.02781266       0.00000000 </v>
   <v>       0.00217343      -0.00000000       0.00000000 </v>
   <v>      -0.00002719      -0.00008850       0.00000000 </v>
   <v>      -0.00055676       0.00013601       0.00000000 </v>
   <v>       0.00137099      -0.00080749       0.00080749 </v>
   <v>      -0.00002719      -0.00000000      -0.00008850 </v>
   <v>      -0.00046271       0.00007478       0.00007478 </v>
   <v>       0.00028655      -0.00073153       0.00042744 </v>
   <v>       0.00027878       0.00041433       0.00087963 </v>
   <v>      -0.00055676      -0.00000000       0.00013601 </v>
   <v>       0.00028655       0.00042744      -0.00073153 </v>
   <v>       0.00001067      -0.00000000       0.00000000 </v>
  </varray>
  <varray name="stress" >
   <v>      51.80000029      -0.00000000       0.00000000 </v>
   <v>       0.00000000      51.79254596       0.00000000 </v>
   <v>      -0.00000000       0.00000000      51.79254596 </v>
  </varray>
  <energy>
   <i name="e_fr_energy">   -364.48721352 </i>
   <i name="e_wo_entrp">   -364.46122010 </i>
   <i name="e_0_energy">     -0.07798027 </i>
  </energy>
  <kpoints>
   <generation param="Gamma">
    <v type="int" name="divisions">       5        5        5 </v>
    <v name="usershift">      0.00000000       0.00000000       0.00000000 </v>
    <v name="genvec1">      0.20000000       0.00000000       0.00000000 </v>
    <v name="genvec2">      0.00000000       0.20000000       0.00000000 </v>
    <v name="genvec3">      0.00000000       0.00000000       0.20000000 </v>
    <v name="shift">      0.00000000       0.00000000       0.00000000 </v>
   </generation>
   <varray name="kpointlist" >
    <v>       0.00000000       0.00000000       0.00000000 </v>
    <v>       0.20000000       0.00000000       0.00000000 </v>
    <v>       0.40000000       0.00000000       0.00000000 </v>
    <v>       0.20000000       0.20000000       0.00000000 </v>
    <v>       0.40000000       0.20000000       0.00000000 </v>
    <v>      -0.40000000       0.20000000       0.00000000 </v>
    <v>      -0.20000000       0.20000000       0.00000000 </v>
    <v>       0.40000000       0.40000000       0.00000000 </v>
    <v>      -0.40000000       0.40000000       0.00000000 </v>
    <v>       0.00000000       0.20000000       0.20000000 </v>
    <v>       0.40000000       0.20000000       0.20000000 </v>
    <v>      -0.40000000       0.20000000       0.20000000 </v>
    <v>      -0.20000000       0.20000000       0.20000000 </v>
    <v>      -0.40000000       0.40000000       0.20000000 </v>
    <v>      -0.20000000       0.40000000       0.20000000 </v>
    <v>       0.40000000      -0.40000000       0.20000000 </v>
    <v>       0.00000000       0.40000000       0.40000000 </v>
    <v>      -0.20000000       0.40000000       0.40000000 </v>
   </varray>
   <varray name="weights" >
    <v>       0.00800000 </v>
    <v>       0.06400000 </v>
    <v>       0.06400000 </v>
    <v>       0.03200000 </v>
    <v>       0.12800000 </v>
    <v>       0.12800000 </v>
    <v>       0.06400000 </v>
    <v>       0.03200000 </v>
    <v>       0.06400000 </v>
    <v>       0.01600000 </v>
    <v>       0.03200000 </v>
    <v>       0.06400000 </v>
    <v>       0.06400000 </v>
    <v>       0.06400000 </v>
    <v>       0.06400000 </v>
    <v>       0.06400000 </v>
    <v>       0.01600000 </v>
    <v>       0.03200000 </v>
   </varray>
  </kpoints>
  <time name="totalsc">10058.2910054.91</time>
 </calculation>
 <calculation>
  <scstep>
   <time name="dav">  792.59  791.94</time>
   <time name="total">  816.21  815.54</time>
   <energy>
    <i name="alphaZ">  10788.19976491 </i>
    <i name="ewald">-158176.16494181 </i>
    <i name="hartreedc"> -56681.04876639 </i>
    <i name="XCdc">   5647.96007933 </i>
    <i name="pawpsdc"> 173492.21268822 </i>
    <i name="pawaedc">-182560.66305658 </i>
    <i name="eentropy">     -0.07792128 </i>
    <i name="bandstr"> -16887.93625996 </i>
    <i name="atom"> 224013.29143063 </i>
    <i name="e_fr_energy">   -364.22698293 </i>
    <i name="e_wo_entrp">   -364.14906165 </i>
    <i name="e_0_energy">   -364.20100917 </i>
   </energy>
  </scstep>
  <scstep>
   <time name="dav">  696.84  696.27</time>
   <time name="total">  720.94  720.35</time>
   <energy>
    <i name="e_fr_energy">   -364.49632365 </i>
    <i name="e_wo_entrp">   -364.41868025 </i>
    <i name="e_0_energy">   -364.47044251 </i>
   </energy>
  </scstep>
  <scstep>
   <time name="dav">  780.72  780.08</time>
   <time name="total">  804.42  803.76</time>
   <energy>
    <i name="e_fr_energy">   -364.49022010 </i>
    <i name="e_wo_entrp">   -364.41220196 </i>
    <i name="e_0_energy">   -364.46421405 </i>
   </energy>
  </scstep>
  <scstep>
   <time name="dav">  822.10  821.42</time>
   <time name="total">  845.87  845.18</time>
   <energy>
    <i name="e_fr_energy">   -364.49303470 </i>
    <i name="e_wo_entrp">   -364.41514594 </i>
    <i name="e_0_energy">   -364.46707178 </i>
   </energy>
  </scstep>
  <scstep>
   <time name="dav">  719.52  718.93</time>
   <time name="total">  742.93  742.32</time>
   <energy>
    <i name="e_fr_energy">   -364.48786861 </i>
    <i name="e_wo_entrp">   -364.40988340 </i>
    <i name="e_0_energy">   -364.46187354 </i>
   </energy>
  </scstep>
  <scstep>
   <time name="dav">  774.09  773.45</time>
   <time name="total">  795.12  794.46</time>
   <energy>
    <i name="e_fr_energy">   -364.48774291 </i>
    <i name="e_wo_entrp">   -364.40975244 </i>
    <i name="e_0_energy">   -364.46174608 </i>
   </energy>
  </scstep>
  <scstep>
   <time name="dav">  701.72  701.14</time>
   <time name="total">  722.73  722.13</time>
   <energy>
    <i name="e_fr_energy">   -364.48758378 </i>
    <i name="e_wo_entrp">   -364.40959774 </i>
    <i name="e_0_energy">   -364.46158843 </i>
   </energy>
  </scstep>
  <scstep>
   <time name="dav">  706.55  705.97</time>
   <time name="total">  727.56  726.96</time>
   <energy>
    <i name="e_fr_energy">   -364.48745012 </i>
    <i name="e_wo_entrp">   -364.40946740 </i>
    <i name="e_0_energy">   -364.46145588 </i>
   </energy>
  </scstep>
  <scstep>
   <time name="dav">  722.44  721.85</time>
   <time name="total">  743.45  742.84</time>
   <energy>
    <i name="e_fr_energy">   -364.48751557 </i>
    <i name="e_wo_entrp">   -364.40953309 </i>
    <i name="e_0_energy">   -364.46152141 </i>
   </energy>
  </scstep>
  <scstep>
   <time name="dav">  745.61  745.00</time>
   <time name="total">  766.62  765.99</time>
   <energy>
    <i name="e_fr_energy">   -364.48726698 </i>
    <i name="e_wo_entrp">   -364.40928887 </i>
    <i name="e_0_energy">   -364.46127428 </i>
   </energy>
  </scstep>
  <scstep>
   <time name="dav">  772.99  772.36</time>
   <time name="total">  794.01  801.21</time>
   <energy>
    <i name="e_fr_energy">   -364.48721070 </i>
    <i name="e_wo_entrp">   -364.40923026 </i>
    <i name="e_0_energy">   -364.46121722 </i>
   </energy>
  </scstep>
  <scstep>
   <time name="dav">  693.46  692.89</time>
   <time name="total">  714.48  713.89</time>
   <energy>
    <i name="e_fr_energy">   -364.48721592 </i>
    <i name="e_wo_entrp">   -364.40923780 </i>
    <i name="e_0_energy">   -364.46122321 </i>
   </energy>
  </scstep>
  <scstep>
   <time name="dav">  665.63  665.09</time>
   <time name="total">  686.66  686.09</time>
   <energy>
    <i name="e_fr_energy">   -364.48721378 </i>
    <i name="e_wo_entrp">   -364.40923488 </i>
    <i name="e_0_energy">   -364.46122082 </i>
   </energy>
  </scstep>
  <scstep>
   <time name="dav">  455.03  454.66</time>
   <time name="total">  476.06  475.67</time>
   <energy>
    <i name="e_fr_energy">   -364.48721483 </i>
    <i name="e_wo_entrp">   -364.40923492 </i>
    <i name="e_0_energy">   -364.46122153 </i>
   </energy>
  </scstep>
  <scstep>
   <time name="dav">  424.71  424.36</time>
   <time name="total">  445.73  445.36</time>
   <energy>
    <i name="e_fr_energy">   -364.48721345 </i>
    <i name="e_wo_entrp">   -364.40923147 </i>
    <i name="e_0_energy">   -364.46121946 </i>
   </energy>
  </scstep>
  <scstep>
   <time name="dav">  397.31  396.99</time>
   <time name="total">  398.09  397.76</time>
   <energy>
    <i name="alphaZ">  10788.19976491 </i>
    <i name="ewald">-158176.16494181 </i>
    <i name="hartreedc"> -56680.99707446 </i>
    <i name="XCdc">   5647.95745099 </i>
    <i name="pawpsdc"> 173492.20747684 </i>
    <i name="pawaedc">-182560.65848425 </i>
    <i name="eentropy">     -0.07798099 </i>
    <i name="bandstr"> -16888.24485547 </i>
    <i name="atom"> 224013.29143063 </i>
    <i name="e_fr_energy">   -364.48721362 </i>
    <i name="e_wo_entrp">   -364.40923262 </i>
    <i name="e_0_energy">   -364.46121995 </i>
   </energy>
  </scstep>
  <structure>
   <crystal>
    <varray name="basis" >
     <v>       0.00000000       6.83850000       6.83850000 </v>
     <v>       6.83850000       0.00000000       6.83850000 </v>
     <v>       6.83850000       6.83850000       0.00000000 </v>
    </varray>
    <i name="volume">    639.60602993 </i>
    <varray name="rec_basis" >
     <v>      -0.07311545       0.07311545       0.07311545 </v>
     <v>       0.07311545      -0.07311545       0.07311545 </v>
     <v>       0.07311545       0.07311545      -0.07311545 </v>
    </varray>
   </crystal>
   <varray name="positions" >
    <v>       0.00109673      -0.00109673      -0.00109673 </v>
    <v>       0.00000000       0.00000000       0.25000000 </v>
    <v>       0.00000000       0.00000000       0.50000000 </v>
    <v>       0.00000000       0.00000000       0.75000000 </v>
    <v>       0.00000000       0.25000000       0.00000000 </v>
    <v>       0.00000000       0.25000000       0.25000000 </v>
    <v>       0.00000000       0.25000000       0.50000000 </v>
    <v>       0.00000000       0.25000000       0.75000000 </v>
    <v>       0.00000000       0.50000000       0.00000000 </v>
    <v>       0.00000000       0.50000000       0.25000000 </v>
    <v>       0.00000000       0.50000000       0.50000000 </v>
    <v>       0.00000000       0.50000000       0.75000000 </v>
    <v>       0.00000000       0.75000000       0.00000000 </v>
    <v>       0.00000000       0.75000000       0.25000000 </v>
    <v>       0.00000000       0.75000000       0.50000000 </v>
    <v>       0.00000000       0.75000000       0.75000000 </v>
    <v>       0.25000000       0.00000000       0.00000000 </v>
    <v>       0.25000000       0.00000000       0.25000000 </v>
    <v>       0.25000000       0.00000000       0.50000000 </v>
    <v>       0.25000000       0.00000000       0.75000000 </v>
    <v>       0.25000000       0.25000000       0.00000000 </v>
    <v>       0.25000000       0.25000000       0.25000000 </v>
    <v>       0.25000000       0.25000000       0.50000000 </v>
    <v>       0.25000000       0.25000000       0.75000000 </v>
    <v>       0.25000000       0.50000000       0.00000000 </v>
    <v>       0.25000000       0.50000000       0.25000000 </v>
    <v>       0.25000000       0.50000000       0.50000000 </v>
    <v>       0.25000000       0.50000000       0.75000000 </v>
    <v>       0.25000000       0.75000000       0.00000000 </v>
    <v>       0.25000000       0.75000000       0.25000000 </v>
    <v>       0.25000000       0.75000000       0.50000000 </v>
    <v>       0.25000000       0.75000000       0.75000000 </v>
    <v>       0.50000000       0.00000000       0.00000000 </v>
    <v>       0.50000000       0.00000000       0.25000000 </v>
    <v>       0.50000000       0.00000000       0.50000000 </v>
    <v>       0.50000000       0.00000000       0.75000000 </v>
    <v>       0.50000000       0.25000000       0.00000000 </v>
    <v>       0.50000000       0.25000000       0.25000000 </v>
    <v>       0.50000000       0.25000000       0.50000000 </v>
    <v>       0.50000000       0.25000000       0.75000000 </v>
    <v>       0.50000000       0.50000000       0.00000000 </v>
    <v>       0.50000000       0.50000000       0.25000000 </v>
    <v>       0.50000000       0.50000000       0.50000000 </v>
    <v>       0.50000000       0.50000000       0.75000000 </v>
    <v>       0.50000000       0.75000000       0.00000000 </v>
    <v>       0.50000000       0.75000000       0.25000000 </v>
    <v>       0.50000000       0.75000000       0.50000000 </v>
    <v>       0.50000000       0.75000000       0.75000000 </v>
    <v>       0.75000000       0.00000000       0.00000000 </v>
    <v>       0.75000000       0.00000000       0.25000000 </v>
    <v>       0.75000000       0.00000000       0.50000000 </v>
    <v>       0.75000000       0.00000000       0.75000000 </v>
    <v>       0.75000000       0.25000000       0.00000000 </v>
    <v>       0.75000000       0.25000000       0.25000000 </v>
    <v>       0.75000000       0.25000000       0.50000000 </v>
    <v>       0.75000000       0.25000000       0.75000000 </v>
    <v>       0.75000000       0.50000000       0.00000000 </v>
    <v>       0.75000000       0.50000000       0.25000000 </v>
    <v>       0.75000000       0.50000000       0.50000000 </v>
    <v>       0.75000000       0.50000000       0.75000000 </v>
    <v>       0.75000000       0.75000000       0.00000000 </v>
    <v>       0.75000000       0.75000000       0.25000000 </v>
    <v>       0.75000000       0.75000000       0.50000000 </v>
    <v>       0.75000000       0.75000000       0.75000000 </v>
   </varray>
  </structure>
  <varray name="forces" >
   <v>       0.19692739      -0.00000000       0.00000000 </v>
   <v>      -0.02330806      -0.02729478       0.00000000 </v>
   <v>       0.00004571       0.00017667       0.00000000 </v>
   <v>      -0.02418813      -0.02855789       0.00000000 </v>
   <v>      -0.02330806      -0.00000000      -0.02729478 </v>
   <v>      -0.00137917      -0.00080720      -0.00080720 </v>
   <v>      -0.00021106      -0.00082882       0.00045693 </v>
   <v>       0.00186660       0.00022615      -0.00022615 </v>
   <v>       0.00004571      -0.00000000       0.00017667 </v>
   <v>      -0.00021106       0.00045693      -0.00082882 </v>
   <v>       0.00005306      -0.00000000       0.00000000 </v>
   <v>      -0.00020460       0.00043479      -0.00081502 </v>
   <v>      -0.02418813      -0.00000000      -0.02855789 </v>
   <v>       0.00186660      -0.00022615       0.00022615 </v>
   <v>      -0.00020460      -0.00081502       0.00043479 </v>
   <v>      -0.00140373      -0.00082097      -0.00082097 </v>
   <v>       0.00186660      -0.00022615      -0.00022615 </v>
   <v>      -0.00020460      -0.00081502      -0.00043479 </v>
   <v>      -0.00140373      -0.00082097       0.00082097 </v>
   <v>      -0.02418813      -0.00000000       0.02855789 </v>
   <v>      -0.00020460      -0.00043479      -0.00081502 </v>
   <v>       0.00000768      -0.00000000       0.00000000 </v>
   <v>      -0.00021106      -0.00045693       0.00082882 </v>
   <v>       0.00066971      -0.00000000      -0.00001001 </v>
   <v>      -0.00140373       0.00082097      -0.00082097 </v>
   <v>      -0.00021106       0.00082882      -0.00045693 </v>
   <v>       0.00051005      -0.00002675      -0.00002675 </v>
   <v>      -0.00003916      -0.00000000       0.00008279 </v>
   <v>      -0.02418813       0.02855789       0.00000000 </v>
   <v>       0.00066971      -0.00001001       0.00000000 </v>
   <v>      -0.00003916       0.00008279       0.00000000 </v>
   <v>      -0.00246474      -0.00000000       0.00000000 </v>
   <v>       0.00005306      -0.00000000      -0.00000000 </v>
   <v>      -0.00020460       0.00043479       0.00081502 </v>
   <v>       0.00004571      -0.00000000      -0.00017667 </v>
   <v>      -0.00021106       0.00045693       0.00082882 </v>
   <v>      -0.00020460       0.00081502       0.00043479 </v>
   <v>      -0.00137917       0.00080720       0.00080720 </v>
   <v>      -0.00011766      -0.00000000      -0.00014106 </v>
   <v>       0.00051005       0.00002675      -0.00002675 </v>
   <v>       0.00004571      -0.00017667      -0.00000000 </v>
   <v>      -0.00011766      -0.00014106       0.00000000 </v>
   <v>       0.00064137      -0.00000000       0.00000000 </v>
   <v>      -0.00003916      -0.00008279       0.00000000 </v>
   <v>      -0.00021106       0.00082882       0.00045693 </v>
   <v>       0.00051005      -0.00002675       0.00002675 </v>
   <v>      -0.00003916      -0.00000000      -0.00008279 </v>
   <v>      -0.00140373       0.00082097       0.00082097 </v>
   <v>       0.00186660       0.00022615       0.00022615 </v>
   <v>      -0.02330806      -0.00000000       0.02729478 </v>
   <v>      -0.00137917      -0.00080720       0.00080720 </v>
   <v>      -0.00021106      -0.00082882      -0.00045693 </v>
   <v>      -0.02330806       0.02729478       0.00000000 </v>
   <v>      -0.00252486      -0.00000000       0.00000000 </v>
   <v>      -0.00011766       0.00014106       0.00000000 </v>
   <v>       0.00066971       0.00001001       0.00000000 </v>
   <v>      -0.00137917       0.00080720      -0.00080720 </v>
   <v>      -0.00011766      -0.00000000       0.00014106 </v>
   <v>       0.00051005       0.00002675       0.00002675 </v>
   <v>      -0.00020460       0.00081502      -0.00043479 </v>
   <v>      -0.00021106      -0.00045693      -0.00082882 </v>
   <v>       0.00066971      -0.00000000       0.00001001 </v>
   <v>      -0.00020460      -0.00043479       0.00081502 </v>
   <v>       0.00000768      -0.00000000      -0.00000000 </v>
  </varray>
  <varray name="stress" >
   <v>      51.82464927       0.00000000       0.00000000 </v>
   <v>       0.00000000      51.82544124      -0.00000000 </v>
   <v>      -0.00000000      -0.00000000      51.82544124 </v>
  </varray>
  <energy>
   <i name="e_fr_energy">   -364.48721362 </i>
   <i name="e_wo_entrp">   -364.46121995 </i>
   <i name="e_0_energy">     -0.07798099 </i>
  </energy>
  <dynmat>
   <varray name="hessian" >
    <v>      -0.22350756       0.00000000       0.00000000       0.02673406       0.03123771      -0.00000000      -0.00009216      -0.00029812      -0.00000000       0.02673406       0.03123771       0.00000000       0.02673406      -0.00000000       0.03123771       0.00160661       0.00091918       0.00091918       0.00027858       0.00091918      -0.00049227      -0.00190539      -0.00000000       0.00000000      -0.00009216      -0.00000000      -0.00029812       0.00027858      -0.00049227       0.00091918      -0.00002911       0.00000000       0.00000000       0.00027858      -0.00049227       0.00091918       0.02673406       0.00000000       0.03123771      -0.00190539       0.00000000      -0.00000000       0.00027858       0.00091918      -0.00049227       0.00160661       0.00091918       0.00091918      -0.00190539       0.00000000       0.00000000       0.00027858       0.00091918       0.00049227       0.00160661       0.00091918      -0.00091918       0.02673406       0.00000000      -0.03123771       0.00027858       0.00049227       0.00091918       0.00000170       0.00000000       0.00000000       0.00027858       0.00049227      -0.00091918      -0.00069658       0.00000000       0.00000000       0.00160661      -0.00091918       0.00091918       0.00027858      -0.00091918       0.00049227      -0.00055249       0.00000000      -0.00000000       0.00007658       0.00000000      -0.00015924       0.02673406      -0.03123771       0.00000000      -0.00069658      -0.00000000       0.00000000       0.00007658      -0.00015924      -0.00000000       0.00272834       0.00000000       0.00000000      -0.00002911      -0.00000000       0.00000000       0.00027858      -0.00049227      -0.00091918      -0.00009216       0.00000000       0.00029812       0.00027858      -0.00049227      -0.00091918       0.00027858      -0.00091918      -0.00049227       0.00160661      -0.00091918      -0.00091918       0.00007658       0.00000000       0.00015924      -0.00055249       0.00000000       0.00000000      -0.00009216       0.00029812       0.00000000       0.00007658       0.00015924      -0.00000000      -0.00070300       0.00000000       0.00000000       0.00007658       0.00015924       0.00000000       0.00027858      -0.00091918      -0.00049227      -0.00055249      -0.00000000      -0.00000000       0.00007658      -0.00000000       0.00015924       0.00160661      -0.00091918      -0.00091918      -0.00190539      -0.00000000      -0.00000000       0.02673406      -0.00000000      -0.03123771       0.00160661       0.00091918      -0.00091918       0.00027858       0.00091918       0.00049227       0.02673406      -0.03123771      -0.00000000       0.00272834       0.00000000      -0.00000000       0.00007658      -0.00015924       0.00000000      -0.00069658      -0.00000000       0.00000000       0.00160661      -0.00091918       0.00091918       0.00007658       0.00000000      -0.00015924      -0.00055249      -0.00000000      -0.00000000       0.00027858      -0.00091918       0.00049227       0.00027858       0.00049227       0.00091918      -0.00069658       0.00000000       0.00000000       0.00027858       0.00049227      -0.00091918       0.00000170       0.00000000       0.00000000 </v>
    <v>       0.00000000      -0.22350756       0.00000000       0.03123771       0.02673406      -0.00000000      -0.00029812      -0.00009216      -0.00000000       0.03123771       0.02673406       0.00000000       0.00000000      -0.00190539       0.00000000       0.00091918       0.00027858       0.00049227       0.00091918       0.00160661      -0.00091918       0.00000000       0.02673406      -0.03123771      -0.00000000      -0.00002911       0.00000000      -0.00049227       0.00027858      -0.00091918       0.00000000      -0.00009216       0.00029812      -0.00049227       0.00027858      -0.00091918      -0.00000000      -0.00190539      -0.00000000      -0.00000000       0.02673406      -0.03123771       0.00091918       0.00160661      -0.00091918       0.00091918       0.00027858       0.00049227      -0.00000000       0.02673406       0.03123771       0.00091918       0.00160661       0.00091918       0.00091918       0.00027858      -0.00049227      -0.00000000      -0.00190539       0.00000000       0.00049227       0.00027858       0.00091918       0.00000000       0.00000170       0.00000000       0.00049227       0.00027858      -0.00091918       0.00000000      -0.00069658       0.00000000      -0.00091918       0.00027858      -0.00049227      -0.00091918       0.00160661      -0.00091918      -0.00000000       0.00007658       0.00015924       0.00000000      -0.00055249      -0.00000000      -0.03123771       0.02673406      -0.00000000      -0.00000000       0.00272834       0.00000000      -0.00015924       0.00007658      -0.00000000       0.00000000      -0.00069658      -0.00000000      -0.00000000      -0.00009216      -0.00029812      -0.00049227       0.00027858       0.00091918       0.00000000      -0.00002911       0.00000000      -0.00049227       0.00027858       0.00091918      -0.00091918       0.00160661       0.00091918      -0.00091918       0.00027858       0.00049227      -0.00000000      -0.00055249       0.00000000      -0.00000000       0.00007658      -0.00015924       0.00029812      -0.00009216       0.00000000       0.00015924       0.00007658      -0.00000000       0.00000000      -0.00070300      -0.00000000       0.00015924       0.00007658      -0.00000000      -0.00091918       0.00160661       0.00091918       0.00000000       0.00007658      -0.00015924       0.00000000      -0.00055249      -0.00000000      -0.00091918       0.00027858       0.00049227       0.00000000       0.02673406       0.03123771       0.00000000      -0.00190539      -0.00000000       0.00091918       0.00027858      -0.00049227       0.00091918       0.00160661       0.00091918      -0.03123771       0.02673406       0.00000000       0.00000000      -0.00069658      -0.00000000      -0.00015924       0.00007658       0.00000000      -0.00000000       0.00272834       0.00000000      -0.00091918       0.00027858      -0.00049227       0.00000000      -0.00055249       0.00000000       0.00000000       0.00007658       0.00015924      -0.00091918       0.00160661      -0.00091918       0.00049227       0.00027858       0.00091918       0.00000000      -0.00069658      -0.00000000       0.00049227       0.00027858      -0.00091918       0.00000000       0.00000170       0.00000000 </v>
[...]
       <r>    25.3213     0.0000   648.0000 </r>
       <r>    25.6107     0.0000   648.0000 </r>
       <r>    25.9002     0.0000   648.0000 </r>
       <r>    26.1896     0.0000   648.0000 </r>
       <r>    26.4791     0.0000   648.0000 </r>
       <r>    26.7685     0.0000   648.0000 </r>
       <r>    27.0579     0.0000   648.0000 </r>
       <r>    27.3474     0.0000   648.0000 </r>
       <r>    27.6368     0.0000   648.0000 </r>
      </set>
      <set comment="spin 2">
       <r>   -59.1945     0.0000     0.0000 </r>
       <r>   -58.9050     0.0000     0.0000 </r>
       <r>   -58.6156     0.0000     0.0000 </r>
       <r>   -58.3262     0.0000     0.0000 </r>
       <r>   -58.0367     0.0000     0.0000 </r>
       <r>   -57.7473     0.0000     0.0000 </r>
       <r>   -57.4579     0.0000     0.0000 </r>
       <r>   -57.1684     0.0000     0.0000 </r>
       <r>   -56.8790     0.0000     0.0000 </r>
       <r>   -56.5895     0.0000     0.0000 </r>
       <r>   -56.3001    -0.0000    -0.0000 </r>
       <r>   -56.0107    -0.0000    -0.0000 </r>
       <r>   -55.7212    -0.0000    -0.0000 </r>
       <r>   -55.4318    -0.0000    -0.0000 </r>
       <r>   -55.1424    -0.0002    -0.0001 </r>
       <r>   -54.8529    -0.5457    -0.1580 </r>
       <r>   -54.5635    -9.6551    -2.9525 </r>
       <r>   -54.2740   338.0657    94.8964 </r>
       <r>   -53.9846   351.0256   196.4964 </r>
       <r>   -53.6952   -15.1924   192.0992 </r>
       <r>   -53.4057    -0.3427   192.0000 </r>
       <r>   -53.1163    -0.0001   192.0000 </r>
       <r>   -52.8269    -0.0000   192.0000 </r>
       <r>   -52.5374     0.0000   192.0000 </r>
       <r>   -52.2480     0.0000   192.0000 </r>
       <r>   -51.9585     0.0000   192.0000 </r>
       <r>   -51.6691     0.0000   192.0000 </r>
       <r>   -51.3797     0.0000   192.0000 </r>
       <r>   -51.0902     0.0000   192.0000 </r>
       <r>   -50.8008     0.0000   192.0000 </r>
       <r>   -50.5114     0.0000   192.0000 </r>
       <r>   -50.2219     0.0000   192.0000 </r>
       <r>   -49.9325     0.0000   192.0000 </r>
       <r>   -49.6430     0.0000   192.0000 </r>
       <r>   -49.3536     0.0000   192.0000 </r>
       <r>   -49.0642     0.0000   192.0000 </r>
       <r>   -48.7747     0.0000   192.0000 </r>
       <r>   -48.4853     0.0000   192.0000 </r>
       <r>   -48.1959     0.0000   192.0000 </r>
       <r>   -47.9064     0.0000   192.0000 </r>
       <r>   -47.6170     0.0000   192.0000 </r>
       <r>   -47.3275     0.0000   192.0000 </r>
       <r>   -47.0381     0.0000   192.0000 </r>
       <r>   -46.7487     0.0000   192.0000 </r>
       <r>   -46.4592     0.0000   192.0000 </r>
       <r>   -46.1698     0.0000   192.0000 </r>
       <r>   -45.8804     0.0000   192.0000 </r>
       <r>   -45.5909     0.0000   192.0000 </r>
       <r>   -45.3015     0.0000   192.0000 </r>
       <r>   -45.0120     0.0000   192.0000 </r>
       <r>   -44.7226     0.0000   192.0000 </r>
       <r>   -44.4332     0.0000   192.0000 </r>
       <r>   -44.1437     0.0000   192.0000 </r>
       <r>   -43.8543     0.0000   192.0000 </r>
       <r>   -43.5649     0.0000   192.0000 </r>
       <r>   -43.2754     0.0000   192.0000 </r>
       <r>   -42.9860     0.0000   192.0000 </r>
       <r>   -42.6965     0.0000   192.0000 </r>
       <r>   -42.4071     0.0000   192.0000 </r>
       <r>   -42.1177     0.0000   192.0000 </r>
       <r>   -41.8282     0.0000   192.0000 </r>
       <r>   -41.5388     0.0000   192.0000 </r>
       <r>   -41.2494     0.0000   192.0000 </r>
       <r>   -40.9599     0.0000   192.0000 </r>
       <r>   -40.6705     0.0000   192.0000 </r>
       <r>   -40.3810     0.0000   192.0000 </r>
       <r>   -40.0916     0.0000   192.0000 </r>
       <r>   -39.8022     0.0000   192.0000 </r>
       <r>   -39.5127     0.0000   192.0000 </r>
       <r>   -39.2233     0.0000   192.0000 </r>
       <r>   -38.9338     0.0000   192.0000 </r>
       <r>   -38.6444     0.0000   192.0000 </r>
       <r>   -38.3550     0.0000   192.0000 </r>
       <r>   -38.0655     0.0000   192.0000 </r>
       <r>   -37.7761     0.0000   192.0000 </r>
       <r>   -37.4867     0.0000   192.0000 </r>
       <r>   -37.1972     0.0000   192.0000 </r>
       <r>   -36.9078     0.0000   192.0000 </r>
       <r>   -36.6183     0.0000   192.0000 </r>
       <r>   -36.3289     0.0000   192.0000 </r>
       <r>   -36.0395     0.0000   192.0000 </r>
       <r>   -35.7500     0.0000   192.0000 </r>
       <r>   -35.4606     0.0000   192.0000 </r>
       <r>   -35.1712     0.0000   192.0000 </r>
       <r>   -34.8817     0.0000   192.0000 </r>
       <r>   -34.5923     0.0000   192.0000 </r>
       <r>   -34.3028     0.0000   192.0000 </r>
       <r>   -34.0134     0.0000   192.0000 </r>
       <r>   -33.7240     0.0000   192.0000 </r>
       <r>   -33.4345     0.0000   192.0000 </r>
       <r>   -33.1451     0.0000   192.0000 </r>
       <r>   -32.8557     0.0000   192.0000 </r>
       <r>   -32.5662     0.0000   192.0000 </r>
       <r>   -32.2768     0.0000   192.0000 </r>
       <r>   -31.9873     0.0000   192.0000 </r>
       <r>   -31.6979     0.0000   192.0000 </r>
       <r>   -31.4085     0.0000   192.0000 </r>
       <r>   -31.1190     0.0000   192.0000 </r>
       <r>   -30.8296     0.0000   192.0000 </r>
       <r>   -30.5402     0.0000   192.0000 </r>
       <r>   -30.2507     0.0000   192.0000 </r>
       <r>   -29.9613     0.0000   192.0000 </r>
       <r>   -29.6718     0.0000   192.0000 </r>
       <r>   -29.3824     0.0000   192.0000 </r>
       <r>   -29.0930     0.0000   192.0000 </r>
       <r>   -28.8035     0.0000   192.0000 </r>
       <r>   -28.5141     0.0000   192.0000 </r>
       <r>   -28.2247     0.0000   192.0000 </r>
       <r>   -27.9352     0.0000   192.0000 </r>
       <r>   -27.6458     0.0000   192.0000 </r>
       <r>   -27.3563     0.0000   192.0000 </r>
       <r>   -27.0669     0.0000   192.0000 </r>
       <r>   -26.7775     0.0000   192.0000 </r>
       <r>   -26.4880     0.0000   192.0000 </r>
       <r>   -26.1986     0.0000   192.0000 </r>
       <r>   -25.9092     0.0000   192.0000 </r>
       <r>   -25.6197     0.0000   192.0000 </r>
       <r>   -25.3303     0.0000   192.0000 </r>
       <r>   -25.0408     0.0000   192.0000 </r>
       <r>   -24.7514     0.0000   192.0000 </r>
       <r>   -24.4620     0.0000   192.0000 </r>
       <r>   -24.1725     0.0000   192.0000 </r>
       <r>   -23.8831     0.0000   192.0000 </r>
       <r>   -23.5937     0.0000   192.0000 </r>
       <r>   -23.3042     0.0000   192.0000 </r>
       <r>   -23.0148     0.0000   192.0000 </r>
       <r>   -22.7253     0.0000   192.0000 </r>
       <r>   -22.4359     0.0000   192.0000 </r>
       <r>   -22.1465     0.0000   192.0000 </r>
       <r>   -21.8570     0.0000   192.0000 </r>
       <r>   -21.5676     0.0000   192.0000 </r>
       <r>   -21.2782     0.0000   192.0000 </r>
       <r>   -20.9887     0.0000   192.0000 </r>
       <r>   -20.6993     0.0000   192.0000 </r>
       <r>   -20.4098     0.0000   192.0000 </r>
       <r>   -20.1204     0.0000   192.0000 </r>
       <r>   -19.8310     0.0000   192.0000 </r>
       <r>   -19.5415     0.0000   192.0000 </r>
       <r>   -19.2521     0.0000   192.0000 </r>
       <r>   -18.9627     0.0000   192.0000 </r>
       <r>   -18.6732     0.0000   192.0000 </r>
       <r>   -18.3838     0.0000   192.0000 </r>
       <r>   -18.0943     0.0000   192.0000 </r>
       <r>   -17.8049     0.0000   192.0000 </r>
       <r>   -17.5155     0.0000   192.0000 </r>
       <r>   -17.2260     0.0000   192.0000 </r>
       <r>   -16.9366     0.0000   192.0000 </r>
       <r>   -16.6471     0.0000   192.0000 </r>
       <r>   -16.3577     0.0000   192.0000 </r>
       <r>   -16.0683     0.0000   192.0000 </r>
       <r>   -15.7788     0.0000   192.0000 </r>
       <r>   -15.4894     0.0000   192.0000 </r>
       <r>   -15.2000     0.0000   192.0000 </r>
       <r>   -14.9105     0.0000   192.0000 </r>
       <r>   -14.6211     0.0000   192.0000 </r>
       <r>   -14.3316     0.0000   192.0000 </r>
       <r>   -14.0422     0.0000   192.0000 </r>
       <r>   -13.7528     0.0000   192.0000 </r>
       <r>   -13.4633     0.0000   192.0000 </r>
       <r>   -13.1739     0.0000   192.0000 </r>
       <r>   -12.8845     0.0000   192.0000 </r>
       <r>   -12.5950     0.0000   192.0000 </r>
       <r>   -12.3056     0.0000   192.0000 </r>
       <r>   -12.0161     0.0000   192.0000 </r>
       <r>   -11.7267     0.0000   192.0000 </r>
       <r>   -11.4373     0.0000   192.0000 </r>
       <r>   -11.1478     0.0000   192.0000 </r>
       <r>   -10.8584     0.0000   192.0000 </r>
       <r>   -10.5690     0.0000   192.0000 </r>
       <r>   -10.2795     0.0000   192.0000 </r>
       <r>    -9.9901     0.0000   192.0000 </r>
       <r>    -9.7006     0.0000   192.0000 </r>
       <r>    -9.4112     0.0000   192.0000 </r>
       <r>    -9.1218     0.0000   192.0000 </r>
       <r>    -8.8323     0.0000   192.0000 </r>
       <r>    -8.5429     0.0000   192.0000 </r>
       <r>    -8.2535     0.0000   192.0000 </r>
       <r>    -7.9640     0.0000   192.0000 </r>
       <r>    -7.6746     0.0000   192.0000 </r>
       <r>    -7.3851     0.0000   192.0000 </r>
       <r>    -7.0957     0.0000   192.0000 </r>
       <r>    -6.8063     0.0000   192.0000 </r>
       <r>    -6.5168     0.0000   192.0000 </r>
       <r>    -6.2274     0.0000   192.0000 </r>
       <r>    -5.9380     0.0000   192.0000 </r>
       <r>    -5.6485     0.0000   192.0000 </r>
       <r>    -5.3591     0.0000   192.0000 </r>
       <r>    -5.0696     0.0000   192.0000 </r>
       <r>    -4.7802     0.0000   192.0000 </r>
       <r>    -4.4908     0.0000   192.0000 </r>
       <r>    -4.2013     0.0000   192.0000 </r>
       <r>    -3.9119     0.0000   192.0000 </r>
       <r>    -3.6225     0.0000   192.0000 </r>
       <r>    -3.3330     0.0000   192.0000 </r>
       <r>    -3.0436     0.0000   192.0000 </r>
       <r>    -2.7541     0.0000   192.0000 </r>
       <r>    -2.4647    -0.0000   192.0000 </r>
       <r>    -2.1753    -0.0000   192.0000 </r>
       <r>    -1.8858    -0.0000   192.0000 </r>
       <r>    -1.5964    -0.0000   192.0000 </r>
       <r>    -1.3070    -0.0000   192.0000 </r>
       <r>    -1.0175    -0.0029   191.9992 </r>
       <r>    -0.7281     0.0183   192.0045 </r>
       <r>    -0.4386     0.6130   192.1819 </r>
       <r>    -0.1492     1.2197   192.5349 </r>
       <r>     0.1402     1.8628   193.0741 </r>
       <r>     0.4297     1.8015   193.5955 </r>
       <r>     0.7191     2.7265   194.3847 </r>
       <r>     1.0085     2.3059   195.0521 </r>
       <r>     1.2980     3.7051   196.1245 </r>
       <r>     1.5874     2.8154   196.9394 </r>
       <r>     1.8769     4.2136   198.1590 </r>
       <r>     2.1663     4.1900   199.3717 </r>
       <r>     2.4557     4.3798   200.6394 </r>
       <r>     2.7452     6.0803   202.3993 </r>
       <r>     3.0346     5.0465   203.8599 </r>
       <r>     3.3240     7.8103   206.1205 </r>
       <r>     3.6135     8.7332   208.6482 </r>
       <r>     3.9029    10.1413   211.5835 </r>
       <r>     4.1924    21.4705   217.7979 </r>
       <r>     4.4818    27.9598   225.8905 </r>
       <r>     4.7712    31.3275   234.9579 </r>
       <r>     5.0607    36.4084   245.4958 </r>
       <r>     5.3501    50.2676   260.0452 </r>
       <r>     5.6395    49.3007   274.3146 </r>
       <r>     5.9290    46.1325   287.6671 </r>
       <r>     6.2184    46.3082   301.0704 </r>
       <r>     6.5079    60.4772   318.5748 </r>
       <r>     6.7973    68.7594   338.4764 </r>
       <r>     7.0867    76.6394   360.6587 </r>
       <r>     7.3762    84.6549   385.1610 </r>
       <r>     7.6656    61.2666   402.8939 </r>
       <r>     7.9551    58.0711   419.7018 </r>
       <r>     8.2445    74.2772   441.2004 </r>
       <r>     8.5339    66.6766   460.4991 </r>
       <r>     8.8234    62.3610   478.5488 </r>
       <r>     9.1128    92.9190   505.4430 </r>
       <r>     9.4022    77.8035   527.9623 </r>
       <r>     9.6917    17.7489   533.0995 </r>
       <r>     9.9811     7.5790   535.2931 </r>
       <r>    10.2706    13.9852   539.3410 </r>
       <r>    10.5600     7.7666   541.5889 </r>
       <r>    10.8494    10.6036   544.6580 </r>
       <r>    11.1389     8.8772   547.2274 </r>
       <r>    11.4283     8.5417   549.6996 </r>
       <r>    11.7177     9.6188   552.4837 </r>
       <r>    12.0072     8.6897   554.9988 </r>
       <r>    12.2966     5.6271   556.6275 </r>
       <r>    12.5861     8.9858   559.2283 </r>
       <r>    12.8755     8.7376   561.7573 </r>
       <r>    13.1649     5.5472   563.3629 </r>
       <r>    13.4544     5.3533   564.9123 </r>
       <r>    13.7438     6.2253   566.7142 </r>
       <r>    14.0332     7.0677   568.7598 </r>
       <r>    14.3227     4.3053   570.0060 </r>
       <r>    14.6121     3.5245   571.0261 </r>
       <r>    14.9016     4.4477   572.3134 </r>
       <r>    15.1910     3.9700   573.4625 </r>
       <r>    15.4804     2.8987   574.3015 </r>
       <r>    15.7699     3.0450   575.1828 </r>
       <r>    16.0593     9.4940   577.9307 </r>
       <r>    16.3487    11.6807   581.3116 </r>
       <r>    16.6382     9.7283   584.1273 </r>
       <r>    16.9276     9.4176   586.8531 </r>
       <r>    17.2171     7.4290   589.0033 </r>
       <r>    17.5065     9.1226   591.6437 </r>
       <r>    17.7959     8.2534   594.0326 </r>
       <r>    18.0854     7.4250   596.1817 </r>
       <r>    18.3748     6.3331   598.0147 </r>
       <r>    18.6642     5.8915   599.7199 </r>
       <r>    18.9537     6.8645   601.7068 </r>
       <r>    19.2431     9.1820   604.3644 </r>
       <r>    19.5326     8.1771   606.7312 </r>
       <r>    19.8220     9.1920   609.3917 </r>
       <r>    20.1114     9.4597   612.1297 </r>
       <r>    20.4009    13.0024   615.8931 </r>
       <r>    20.6903     7.9766   618.2018 </r>
       <r>    20.9797    12.0788   621.6978 </r>
       <r>    21.2692    12.8129   625.4064 </r>
       <r>    21.5586    10.4480   628.4304 </r>
       <r>    21.8481    11.3257   631.7085 </r>
       <r>    22.1375    10.1253   634.6391 </r>
       <r>    22.4269    10.8530   637.7804 </r>
       <r>    22.7164    12.1718   641.3034 </r>
       <r>    23.0058    12.5844   644.9458 </r>
       <r>    23.2952     7.5621   647.1346 </r>
       <r>    23.5847     2.6500   647.9016 </r>
       <r>    23.8741     0.3514   648.0033 </r>
       <r>    24.1636    -0.0103   648.0003 </r>
       <r>    24.4530    -0.0010   648.0000 </r>
       <r>    24.7424    -0.0000   648.0000 </r>
       <r>    25.0319    -0.0000   648.0000 </r>
       <r>    25.3213     0.0000   648.0000 </r>
       <r>    25.6107     0.0000   648.0000 </r>
       <r>    25.9002     0.0000   648.0000 </r>
       <r>    26.1896     0.0000   648.0000 </r>
       <r>    26.4791     0.0000   648.0000 </r>
       <r>    26.7685     0.0000   648.0000 </r>
       <r>    27.0579     0.0000   648.0000 </r>
       <r>    27.3474     0.0000   648.0000 </r>
       <r>    27.6368     0.0000   648.0000 </r>
      </set>
     </set>
    </array>
   </total>
  </dos>
 </calculation>
 <structure name="finalpos" >
  <crystal>
   <varray name="basis" >
    <v>       0.00000000       6.83850000       6.83850000 </v>
    <v>       6.83850000       0.00000000       6.83850000 </v>
    <v>       6.83850000       6.83850000       0.00000000 </v>
   </varray>
   <i name="volume">    639.60602993 </i>
   <varray name="rec_basis" >
    <v>      -0.07311545       0.07311545       0.07311545 </v>
    <v>       0.07311545      -0.07311545       0.07311545 </v>
    <v>       0.07311545       0.07311545      -0.07311545 </v>
   </varray>
  </crystal>
  <varray name="positions" >
   <v>       0.00109673      -0.00109673      -0.00109673 </v>
   <v>       0.00000000       0.00000000       0.25000000 </v>
   <v>       0.00000000       0.00000000       0.50000000 </v>
   <v>       0.00000000       0.00000000       0.75000000 </v>
   <v>       0.00000000       0.25000000       0.00000000 </v>
   <v>       0.00000000       0.25000000       0.25000000 </v>
   <v>       0.00000000       0.25000000       0.50000000 </v>
   <v>       0.00000000       0.25000000       0.75000000 </v>
   <v>       0.00000000       0.50000000       0.00000000 </v>
   <v>       0.00000000       0.50000000       0.25000000 </v>
   <v>       0.00000000       0.50000000       0.50000000 </v>
   <v>       0.00000000       0.50000000       0.75000000 </v>
   <v>       0.00000000       0.75000000       0.00000000 </v>
   <v>       0.00000000       0.75000000       0.25000000 </v>
   <v>       0.00000000       0.75000000       0.50000000 </v>
   <v>       0.00000000       0.75000000       0.75000000 </v>
   <v>       0.25000000       0.00000000       0.00000000 </v>
   <v>       0.25000000       0.00000000       0.25000000 </v>
   <v>       0.25000000       0.00000000       0.50000000 </v>
   <v>       0.25000000       0.00000000       0.75000000 </v>
   <v>       0.25000000       0.25000000       0.00000000 </v>
   <v>       0.25000000       0.25000000       0.25000000 </v>
   <v>       0.25000000       0.25000000       0.50000000 </v>
   <v>       0.25000000       0.25000000       0.75000000 </v>
   <v>       0.25000000       0.50000000       0.00000000 </v>
   <v>       0.25000000       0.50000000       0.25000000 </v>
   <v>       0.25000000       0.50000000       0.50000000 </v>
   <v>       0.25000000       0.50000000       0.75000000 </v>
   <v>       0.25000000       0.75000000       0.00000000 </v>
   <v>       0.25000000       0.75000000       0.25000000 </v>
   <v>       0.25000000       0.75000000       0.50000000 </v>
   <v>       0.25000000       0.75000000       0.75000000 </v>
   <v>       0.50000000       0.00000000       0.00000000 </v>
   <v>       0.50000000       0.00000000       0.25000000 </v>
   <v>       0.50000000       0.00000000       0.50000000 </v>
   <v>       0.50000000       0.00000000       0.75000000 </v>
   <v>       0.50000000       0.25000000       0.00000000 </v>
   <v>       0.50000000       0.25000000       0.25000000 </v>
   <v>       0.50000000       0.25000000       0.50000000 </v>
   <v>       0.50000000       0.25000000       0.75000000 </v>
   <v>       0.50000000       0.50000000       0.00000000 </v>
   <v>       0.50000000       0.50000000       0.25000000 </v>
   <v>       0.50000000       0.50000000       0.50000000 </v>
   <v>       0.50000000       0.50000000       0.75000000 </v>
   <v>       0.50000000       0.75000000       0.00000000 </v>
   <v>       0.50000000       0.75000000       0.25000000 </v>
   <v>       0.50000000       0.75000000       0.50000000 </v>
   <v>       0.50000000       0.75000000       0.75000000 </v>
   <v>       0.75000000       0.00000000       0.00000000 </v>
   <v>       0.75000000       0.00000000       0.25000000 </v>
   <v>       0.75000000       0.00000000       0.50000000 </v>
   <v>       0.75000000       0.00000000       0.75000000 </v>
   <v>       0.75000000       0.25000000       0.00000000 </v>
   <v>       0.75000000       0.25000000       0.25000000 </v>
   <v>       0.75000000       0.25000000       0.50000000 </v>
   <v>       0.75000000       0.25000000       0.75000000 </v>
   <v>       0.75000000       0.50000000       0.00000000 </v>
   <v>       0.75000000       0.50000000       0.25000000 </v>
   <v>       0.75000000       0.50000000       0.50000000 </v>
   <v>       0.75000000       0.50000000       0.75000000 </v>
   <v>       0.75000000       0.75000000       0.00000000 </v>
   <v>       0.75000000       0.75000000       0.25000000 </v>
   <v>       0.75000000       0.75000000       0.50000000 </v>
   <v>       0.75000000       0.75000000       0.75000000 </v>
  </varray>
 </structure>
</modeling>
