       N       E                     dE             d eps       ncg     rms          rms(c)
DAV:   1     0.159861324143E+05    0.15986E+05   -0.59696E+05 11544   0.223E+03
DAV:   2     0.115224825531E+04   -0.14834E+05   -0.14404E+05 10368   0.718E+02
DAV:   3    -0.343002263243E+03   -0.14953E+04   -0.12495E+04 10496   0.244E+02
DAV:   4    -0.431819326594E+03   -0.88817E+02   -0.86121E+02 11088   0.612E+01
DAV:   5    -0.433327120240E+03   -0.15078E+01   -0.15060E+01 11064   0.776E+00    0.676E+01
DAV:   6    -0.398016993000E+03    0.35310E+02   -0.59101E+02 10880   0.740E+01    0.479E+01
DAV:   7    -0.370354128774E+03    0.27663E+02   -0.11331E+02 10856   0.329E+01    0.601E+00
DAV:   8    -0.370312315706E+03    0.41813E-01   -0.12265E+00 11144   0.244E+00    0.294E+00
DAV:   9    -0.370172087711E+03    0.14023E+00   -0.20060E-01 11800   0.848E-01    0.773E-01
DAV:  10    -0.370176928637E+03   -0.48409E-02   -0.12529E-02 11624   0.217E-01    0.308E-01
DAV:  11    -0.370180265309E+03   -0.33367E-02   -0.53447E-03 11064   0.167E-01    0.102E-01
DAV:  12    -0.370180298237E+03   -0.32928E-04   -0.61362E-04 10792   0.581E-02    0.283E-02
DAV:  13    -0.370180306452E+03   -0.82148E-05   -0.30088E-05 10432   0.120E-02    0.199E-02
DAV:  14    -0.370180285040E+03    0.21412E-04   -0.93108E-06  9216   0.880E-03    0.576E-03
DAV:  15    -0.370180278751E+03    0.62891E-05   -0.12051E-06  5480   0.333E-03    0.201E-03
DAV:  16    -0.370180278723E+03    0.27503E-07   -0.21061E-07  5424   0.119E-03
   1 F= -.37018028E+03 E0= -.37015157E+03  d E =-.861199E-01  mag=    43.8755
 Linear response reoptimize wavefunctions
DAV:   1    -0.370180279143E+03   -0.41968E-06   -0.27175E-08  5856   0.476E-04
DAV:   2    -0.370180279144E+03   -0.14843E-08   -0.63594E-09  5472   0.281E-04
DAV:   3    -0.370180279144E+03    0.58208E-10   -0.16286E-09  5472   0.156E-04
 Linear response DOF=           1
 Linear response progress:
  Degree of freedom:   1/  1
       N       E                     dE             d eps       ncg     rms          rms(c)
RMM:   1    -0.134965644494E+01   -0.13497E+01   -0.44615E+02 15690   0.111E+02
RMM:   2    -0.161364277684E+01   -0.26399E+00   -0.11339E-01 25095   0.658E-01    0.389E-01
RMM:   3    -0.161235568461E+01    0.12871E-02   -0.21910E-03 24926   0.956E-02    0.826E-01
RMM:   4    -0.161142578202E+01    0.92990E-03   -0.14718E-03 18131   0.106E-01    0.680E-01
RMM:   5    -0.161384672551E+01   -0.24209E-02   -0.67580E-04 18522   0.602E-02    0.457E-01
RMM:   6    -0.161248900290E+01    0.13577E-02   -0.22541E-04 17654   0.409E-02    0.935E-02
RMM:   7    -0.161302571146E+01   -0.53671E-03   -0.17841E-04 19882   0.273E-02    0.259E-01
RMM:   8    -0.161217215780E+01    0.85355E-03   -0.88967E-05 17988   0.242E-02    0.574E-02
RMM:   9    -0.161224425346E+01   -0.72096E-04   -0.14334E-05 22897   0.943E-03    0.450E-02
RMM:  10    -0.161194044263E+01    0.30381E-03   -0.23369E-05 25303   0.558E-03    0.207E-02
RMM:  11    -0.161215387402E+01   -0.21343E-03   -0.19528E-05 28215   0.339E-03    0.159E-02
RMM:  12    -0.161194856046E+01    0.20531E-03   -0.31707E-05 26723   0.318E-03    0.127E-02
RMM:  13    -0.161200895954E+01   -0.60399E-04   -0.32428E-05 27008   0.286E-03    0.444E-03
RMM:  14    -0.161201546797E+01   -0.65084E-05   -0.36890E-05 30842   0.218E-03    0.822E-03
RMM:  15    -0.161199560579E+01    0.19862E-04   -0.44362E-05 31522   0.207E-03    0.170E-03
RMM:  16    -0.161197666040E+01    0.18945E-04   -0.41383E-05 34164   0.185E-03    0.340E-03
RMM:  17    -0.161198846149E+01   -0.11801E-04   -0.42539E-05 34940   0.180E-03    0.737E-04
RMM:  18    -0.161198816954E+01    0.29195E-06   -0.29144E-05 37007   0.170E-03    0.491E-04
 Linear response finished
