 vasp.5.4.1 05Feb16 (build Oct 12 2016 17:31:35) complex                        
  
 executed on           IFC91_ompi date 2020.09.08  23:27:37
 running on    8 total cores
 distrk:  each k-point on    8 cores,    1 groups
 distr:  one band on NCORES_PER_BAND=   1 cores,    8 groups


--------------------------------------------------------------------------------------------------------


 INCAR:
 POTCAR:   PAW_PBE Ni_pv 06Sep2000                

 ----------------------------------------------------------------------------- 
|                                                                             |
|           W    W    AA    RRRRR   N    N  II  N    N   GGGG   !!!           |
|           W    W   A  A   R    R  NN   N  II  NN   N  G    G  !!!           |
|           W    W  A    A  R    R  N N  N  II  N N  N  G       !!!           |
|           W WW W  AAAAAA  RRRRR   N  N N  II  N  N N  G  GGG   !            |
|           WW  WW  A    A  R   R   N   NN  II  N   NN  G    G                |
|           W    W  A    A  R    R  N    N  II  N    N   GGGG   !!!           |
|                                                                             |
|      For optimal performance we recommend to set                            |
|        NCORE= 4 - approx SQRT( number of cores)                             |
|      NCORE specifies how many cores store one orbital (NPAR=cpu/NCORE).     |
|      This setting can  greatly improve the performance of VASP for DFT.     |
|      The default, NPAR=number of cores might be grossly inefficient         |
|      on modern multi-core architectures or massively parallel machines.     |
|      Do your own testing !!!!                                               |
|      Unfortunately you need to use the default for GW and RPA calculations. |
|      (for HF NCORE is supported but not extensively tested yet)             |
|                                                                             |
 ----------------------------------------------------------------------------- 

 POTCAR:   PAW_PBE Ni_pv 06Sep2000                
  local pseudopotential read in
  partial core-charges read in
  atomic valenz-charges read in
  non local Contribution for L=           1  read in
    real space projection operators read in
  non local Contribution for L=           1  read in
    real space projection operators read in
  non local Contribution for L=           2  read in
    real space projection operators read in
  non local Contribution for L=           2  read in
    real space projection operators read in
  non local Contribution for L=           0  read in
    real space projection operators read in
  non local Contribution for L=           0  read in
    real space projection operators read in
    PAW grid and wavefunctions read in
 
   number of l-projection  operators is LMAX  =           6
   number of lm-projection operators is LMMAX =          18
 

 ----------------------------------------------------------------------------- 
|                                                                             |
|  ADVICE TO THIS USER RUNNING 'VASP/VAMP'   (HEAR YOUR MASTER'S VOICE ...):  |
|                                                                             |
|      You have a (more or less) 'large supercell' and for larger cells       |
|      it might be more efficient to use real space projection operators      |
|      So try LREAL= Auto  in the INCAR   file.                               |
|      Mind: If you want to do a very accurate calculations keep the          |
|      reciprocal projection scheme          (i.e. LREAL=.FALSE.)             |
|                                                                             |
 ----------------------------------------------------------------------------- 

 PAW_PBE Ni_pv 06Sep2000                :
 energy of atom  1       EATOM=-3500.3496
 kinetic energy error for atom=    0.0894 (will be added to EATOM!!)
 
 
 POSCAR: Supercell by Yi Wang                    
  positions in direct lattice
  No initial velocities read in
 exchange correlation table for  LEXCH =        8
   RHO(1)=    0.500       N(1)  =     2000
   RHO(2)=  100.500       N(2)  =     4000
 


--------------------------------------------------------------------------------------------------------


 ion  position               nearest neighbor table
   1  0.000  0.000  0.000-   2 2.49   4 2.49   5 2.49   8 2.49  13 2.49  14 2.49  17 2.49  20 2.49
                            29 2.49  49 2.49  50 2.49  53 2.49
   2  0.000  0.000  0.250-   1 2.49   3 2.49   5 2.49   6 2.49  14 2.49  15 2.49  17 2.49  18 2.49
                            30 2.49  50 2.49  51 2.49  54 2.49
   3  0.000  0.000  0.500-   2 2.49   4 2.49   6 2.49   7 2.49  15 2.49  16 2.49  18 2.49  19 2.49
                            31 2.49  51 2.49  52 2.49  55 2.49
   4  0.000  0.000  0.750-   1 2.49   3 2.49   7 2.49   8 2.49  13 2.49  16 2.49  19 2.49  20 2.49
                            32 2.49  49 2.49  52 2.49  56 2.49
   5  0.000  0.250  0.000-   1 2.49   2 2.49   6 2.49   8 2.49   9 2.49  12 2.49  17 2.49  21 2.49
                            24 2.49  53 2.49  54 2.49  57 2.49
   6  0.000  0.250  0.250-   2 2.49   3 2.49   5 2.49   7 2.49   9 2.49  10 2.49  18 2.49  21 2.49
                            22 2.49  54 2.49  55 2.49  58 2.49
   7  0.000  0.250  0.500-   3 2.49   4 2.49   6 2.49   8 2.49  10 2.49  11 2.49  19 2.49  22 2.49
                            23 2.49  55 2.49  56 2.49  59 2.49
   8  0.000  0.250  0.750-   1 2.49   4 2.49   5 2.49   7 2.49  11 2.49  12 2.49  20 2.49  23 2.49
                            24 2.49  53 2.49  56 2.49  60 2.49
   9  0.000  0.500  0.000-   5 2.49   6 2.49  10 2.49  12 2.49  13 2.49  16 2.49  21 2.49  25 2.49
                            28 2.49  57 2.49  58 2.49  61 2.49
  10  0.000  0.500  0.250-   6 2.49   7 2.49   9 2.49  11 2.49  13 2.49  14 2.49  22 2.49  25 2.49
                            26 2.49  58 2.49  59 2.49  62 2.49
  11  0.000  0.500  0.500-   7 2.49   8 2.49  10 2.49  12 2.49  14 2.49  15 2.49  23 2.49  26 2.49
                            27 2.49  59 2.49  60 2.49  63 2.49
  12  0.000  0.500  0.750-   5 2.49   8 2.49   9 2.49  11 2.49  15 2.49  16 2.49  24 2.49  27 2.49
                            28 2.49  57 2.49  60 2.49  64 2.49
  13  0.000  0.750  0.000-   1 2.49   4 2.49   9 2.49  10 2.49  14 2.49  16 2.49  25 2.49  29 2.49
                            32 2.49  49 2.49  61 2.49  62 2.49
  14  0.000  0.750  0.250-   1 2.49   2 2.49  10 2.49  11 2.49  13 2.49  15 2.49  26 2.49  29 2.49
                            30 2.49  50 2.49  62 2.49  63 2.49
  15  0.000  0.750  0.500-   2 2.49   3 2.49  11 2.49  12 2.49  14 2.49  16 2.49  27 2.49  30 2.49
                            31 2.49  51 2.49  63 2.49  64 2.49
  16  0.000  0.750  0.750-   3 2.49   4 2.49   9 2.49  12 2.49  13 2.49  15 2.49  28 2.49  31 2.49
                            32 2.49  52 2.49  61 2.49  64 2.49
  17  0.250  0.000  0.000-   1 2.49   2 2.49   5 2.49  18 2.49  20 2.49  21 2.49  24 2.49  29 2.49
                            30 2.49  33 2.49  36 2.49  45 2.49
  18  0.250  0.000  0.250-   2 2.49   3 2.49   6 2.49  17 2.49  19 2.49  21 2.49  22 2.49  30 2.49
                            31 2.49  33 2.49  34 2.49  46 2.49
  19  0.250  0.000  0.500-   3 2.49   4 2.49   7 2.49  18 2.49  20 2.49  22 2.49  23 2.49  31 2.49
                            32 2.49  34 2.49  35 2.49  47 2.49
  20  0.250  0.000  0.750-   1 2.49   4 2.49   8 2.49  17 2.49  19 2.49  23 2.49  24 2.49  29 2.49
                            32 2.49  35 2.49  36 2.49  48 2.49
  21  0.250  0.250  0.000-   5 2.49   6 2.49   9 2.49  17 2.49  18 2.49  22 2.49  24 2.49  25 2.49
                            28 2.49  33 2.49  37 2.49  40 2.49
  22  0.250  0.250  0.250-   6 2.49   7 2.49  10 2.49  18 2.49  19 2.49  21 2.49  23 2.49  25 2.49
                            26 2.49  34 2.49  37 2.49  38 2.49
  23  0.250  0.250  0.500-   7 2.49   8 2.49  11 2.49  19 2.49  20 2.49  22 2.49  24 2.49  26 2.49
                            27 2.49  35 2.49  38 2.49  39 2.49
  24  0.250  0.250  0.750-   5 2.49   8 2.49  12 2.49  17 2.49  20 2.49  21 2.49  23 2.49  27 2.49
                            28 2.49  36 2.49  39 2.49  40 2.49
  25  0.250  0.500  0.000-   9 2.49  10 2.49  13 2.49  21 2.49  22 2.49  26 2.49  28 2.49  29 2.49
                            32 2.49  37 2.49  41 2.49  44 2.49
  26  0.250  0.500  0.250-  10 2.49  11 2.49  14 2.49  22 2.49  23 2.49  25 2.49  27 2.49  29 2.49
                            30 2.49  38 2.49  41 2.49  42 2.49
  27  0.250  0.500  0.500-  11 2.49  12 2.49  15 2.49  23 2.49  24 2.49  26 2.49  28 2.49  30 2.49
                            31 2.49  39 2.49  42 2.49  43 2.49
  28  0.250  0.500  0.750-   9 2.49  12 2.49  16 2.49  21 2.49  24 2.49  25 2.49  27 2.49  31 2.49
                            32 2.49  40 2.49  43 2.49  44 2.49
  29  0.250  0.750  0.000-   1 2.49  13 2.49  14 2.49  17 2.49  20 2.49  25 2.49  26 2.49  30 2.49
                            32 2.49  41 2.49  45 2.49  48 2.49
  30  0.250  0.750  0.250-   2 2.49  14 2.49  15 2.49  17 2.49  18 2.49  26 2.49  27 2.49  29 2.49
                            31 2.49  42 2.49  45 2.49  46 2.49
  31  0.250  0.750  0.500-   3 2.49  15 2.49  16 2.49  18 2.49  19 2.49  27 2.49  28 2.49  30 2.49
                            32 2.49  43 2.49  46 2.49  47 2.49
  32  0.250  0.750  0.750-   4 2.49  13 2.49  16 2.49  19 2.49  20 2.49  25 2.49  28 2.49  29 2.49
                            31 2.49  44 2.49  47 2.49  48 2.49
  33  0.500  0.000  0.000-  17 2.49  18 2.49  21 2.49  34 2.49  36 2.49  37 2.49  40 2.49  45 2.49
                            46 2.49  49 2.49  52 2.49  61 2.49
  34  0.500  0.000  0.250-  18 2.49  19 2.49  22 2.49  33 2.49  35 2.49  37 2.49  38 2.49  46 2.49
                            47 2.49  49 2.49  50 2.49  62 2.49
  35  0.500  0.000  0.500-  19 2.49  20 2.49  23 2.49  34 2.49  36 2.49  38 2.49  39 2.49  47 2.49
                            48 2.49  50 2.49  51 2.49  63 2.49
  36  0.500  0.000  0.750-  17 2.49  20 2.49  24 2.49  33 2.49  35 2.49  39 2.49  40 2.49  45 2.49
                            48 2.49  51 2.49  52 2.49  64 2.49
  37  0.500  0.250  0.000-  21 2.49  22 2.49  25 2.49  33 2.49  34 2.49  38 2.49  40 2.49  41 2.49
                            44 2.49  49 2.49  53 2.49  56 2.49
  38  0.500  0.250  0.250-  22 2.49  23 2.49  26 2.49  34 2.49  35 2.49  37 2.49  39 2.49  41 2.49
                            42 2.49  50 2.49  53 2.49  54 2.49
  39  0.500  0.250  0.500-  23 2.49  24 2.49  27 2.49  35 2.49  36 2.49  38 2.49  40 2.49  42 2.49
                            43 2.49  51 2.49  54 2.49  55 2.49
  40  0.500  0.250  0.750-  21 2.49  24 2.49  28 2.49  33 2.49  36 2.49  37 2.49  39 2.49  43 2.49
                            44 2.49  52 2.49  55 2.49  56 2.49
  41  0.500  0.500  0.000-  25 2.49  26 2.49  29 2.49  37 2.49  38 2.49  42 2.49  44 2.49  45 2.49
                            48 2.49  53 2.49  57 2.49  60 2.49
  42  0.500  0.500  0.250-  26 2.49  27 2.49  30 2.49  38 2.49  39 2.49  41 2.49  43 2.49  45 2.49
                            46 2.49  54 2.49  57 2.49  58 2.49
  43  0.500  0.500  0.500-  27 2.49  28 2.49  31 2.49  39 2.49  40 2.49  42 2.49  44 2.49  46 2.49
                            47 2.49  55 2.49  58 2.49  59 2.49
  44  0.500  0.500  0.750-  25 2.49  28 2.49  32 2.49  37 2.49  40 2.49  41 2.49  43 2.49  47 2.49
                            48 2.49  56 2.49  59 2.49  60 2.49
  45  0.500  0.750  0.000-  17 2.49  29 2.49  30 2.49  33 2.49  36 2.49  41 2.49  42 2.49  46 2.49
                            48 2.49  57 2.49  61 2.49  64 2.49
  46  0.500  0.750  0.250-  18 2.49  30 2.49  31 2.49  33 2.49  34 2.49  42 2.49  43 2.49  45 2.49
                            47 2.49  58 2.49  61 2.49  62 2.49
  47  0.500  0.750  0.500-  19 2.49  31 2.49  32 2.49  34 2.49  35 2.49  43 2.49  44 2.49  46 2.49
                            48 2.49  59 2.49  62 2.49  63 2.49
  48  0.500  0.750  0.750-  20 2.49  29 2.49  32 2.49  35 2.49  36 2.49  41 2.49  44 2.49  45 2.49
                            47 2.49  60 2.49  63 2.49  64 2.49
  49  0.750  0.000  0.000-   1 2.49   4 2.49  13 2.49  33 2.49  34 2.49  37 2.49  50 2.49  52 2.49
                            53 2.49  56 2.49  61 2.49  62 2.49
  50  0.750  0.000  0.250-   1 2.49   2 2.49  14 2.49  34 2.49  35 2.49  38 2.49  49 2.49  51 2.49
                            53 2.49  54 2.49  62 2.49  63 2.49
  51  0.750  0.000  0.500-   2 2.49   3 2.49  15 2.49  35 2.49  36 2.49  39 2.49  50 2.49  52 2.49
                            54 2.49  55 2.49  63 2.49  64 2.49
  52  0.750  0.000  0.750-   3 2.49   4 2.49  16 2.49  33 2.49  36 2.49  40 2.49  49 2.49  51 2.49
                            55 2.49  56 2.49  61 2.49  64 2.49
  53  0.750  0.250  0.000-   1 2.49   5 2.49   8 2.49  37 2.49  38 2.49  41 2.49  49 2.49  50 2.49
                            54 2.49  56 2.49  57 2.49  60 2.49
  54  0.750  0.250  0.250-   2 2.49   5 2.49   6 2.49  38 2.49  39 2.49  42 2.49  50 2.49  51 2.49
                            53 2.49  55 2.49  57 2.49  58 2.49
  55  0.750  0.250  0.500-   3 2.49   6 2.49   7 2.49  39 2.49  40 2.49  43 2.49  51 2.49  52 2.49
                            54 2.49  56 2.49  58 2.49  59 2.49
  56  0.750  0.250  0.750-   4 2.49   7 2.49   8 2.49  37 2.49  40 2.49  44 2.49  49 2.49  52 2.49
                            53 2.49  55 2.49  59 2.49  60 2.49
  57  0.750  0.500  0.000-   5 2.49   9 2.49  12 2.49  41 2.49  42 2.49  45 2.49  53 2.49  54 2.49
                            58 2.49  60 2.49  61 2.49  64 2.49
  58  0.750  0.500  0.250-   6 2.49   9 2.49  10 2.49  42 2.49  43 2.49  46 2.49  54 2.49  55 2.49
                            57 2.49  59 2.49  61 2.49  62 2.49
  59  0.750  0.500  0.500-   7 2.49  10 2.49  11 2.49  43 2.49  44 2.49  47 2.49  55 2.49  56 2.49
                            58 2.49  60 2.49  62 2.49  63 2.49
  60  0.750  0.500  0.750-   8 2.49  11 2.49  12 2.49  41 2.49  44 2.49  48 2.49  53 2.49  56 2.49
                            57 2.49  59 2.49  63 2.49  64 2.49
  61  0.750  0.750  0.000-   9 2.49  13 2.49  16 2.49  33 2.49  45 2.49  46 2.49  49 2.49  52 2.49
                            57 2.49  58 2.49  62 2.49  64 2.49
  62  0.750  0.750  0.250-  10 2.49  13 2.49  14 2.49  34 2.49  46 2.49  47 2.49  49 2.49  50 2.49
                            58 2.49  59 2.49  61 2.49  63 2.49
  63  0.750  0.750  0.500-  11 2.49  14 2.49  15 2.49  35 2.49  47 2.49  48 2.49  50 2.49  51 2.49
                            59 2.49  60 2.49  62 2.49  64 2.49
  64  0.750  0.750  0.750-  12 2.49  15 2.49  16 2.49  36 2.49  45 2.49  48 2.49  51 2.49  52 2.49
                            57 2.49  60 2.49  61 2.49  63 2.49
 
  LATTYP: Found a face centered cubic cell.
 ALAT       =    14.1000000000
  
  Lattice vectors:
  
 A1 = (   0.0000000000,   7.0500000000,   7.0500000000)
 A2 = (   7.0500000000,   0.0000000000,   7.0500000000)
 A3 = (   7.0500000000,   7.0500000000,   0.0000000000)


Analysis of symmetry for initial positions (statically):
=====================================================================
 Subroutine PRICEL returns following result:
 
  LATTYP: Found a face centered cubic cell.
 ALAT       =     3.5250000000
  
  Lattice vectors:
  
 A1 = (   0.0000000000,   1.7625000000,   1.7625000000)
 A2 = (   1.7625000000,   0.0000000000,   1.7625000000)
 A3 = (   1.7625000000,   1.7625000000,   0.0000000000)
 
  64 primitive cells build up your supercell.
 

 Routine SETGRP: Setting up the symmetry group for a 
 face centered cubic supercell.


 Subroutine GETGRP returns: Found 48 space group operations
 (whereof 48 operations were pure point group operations)
 out of a pool of 48 trial point group operations.


The static configuration has the point symmetry O_h .


Analysis of symmetry for dynamics (positions and initial velocities):
=====================================================================
 Subroutine PRICEL returns following result:
 
  LATTYP: Found a face centered cubic cell.
 ALAT       =     3.5250000000
  
  Lattice vectors:
  
 A1 = (   0.0000000000,   1.7625000000,   1.7625000000)
 A2 = (   1.7625000000,   0.0000000000,   1.7625000000)
 A3 = (   1.7625000000,   1.7625000000,   0.0000000000)
 
  64 primitive cells build up your supercell.
 

 Routine SETGRP: Setting up the symmetry group for a 
 face centered cubic supercell.


 Subroutine GETGRP returns: Found 48 space group operations
 (whereof 48 operations were pure point group operations)
 out of a pool of 48 trial point group operations.


The dynamic configuration has the point symmetry O_h .


Analysis of structural, dynamic, and magnetic symmetry:
=====================================================================
 Subroutine PRICEL returns following result:
 
  LATTYP: Found a face centered cubic cell.
 ALAT       =     3.5250000000
  
  Lattice vectors:
  
 A1 = (   0.0000000000,   1.7625000000,   1.7625000000)
 A2 = (   1.7625000000,   0.0000000000,   1.7625000000)
 A3 = (   1.7625000000,   1.7625000000,   0.0000000000)
 
  64 primitive cells build up your supercell.
 

 Routine SETGRP: Setting up the symmetry group for a 
 face centered cubic supercell.


 Subroutine GETGRP returns: Found 48 space group operations
 (whereof 48 operations were pure point group operations)
 out of a pool of 48 trial point group operations.


The magnetic configuration has the point symmetry O_h .


 Subroutine INISYM returns: Found 48 space group operations
 (whereof 48 operations are pure point group operations),
 and found    64 'primitive' translations

 
 
 KPOINTS: Zr 15x15x15                             

Automatic generation of k-mesh.
Space group operators:
 irot       det(A)        alpha          n_x          n_y          n_z        tau_x        tau_y        tau_z
    1     1.000000     0.000000     1.000000     0.000000     0.000000     0.000000     0.000000     0.000000
    2    -1.000000     0.000000     1.000000     0.000000     0.000000     0.000000     0.000000     0.000000
    3     1.000000   120.000000    -0.577350    -0.577350    -0.577350     0.000000     0.000000     0.000000
    4    -1.000000   120.000000    -0.577350    -0.577350    -0.577350     0.000000     0.000000     0.000000
    5     1.000000   120.000000     0.577350     0.577350     0.577350     0.000000     0.000000     0.000000
    6    -1.000000   120.000000     0.577350     0.577350     0.577350     0.000000     0.000000     0.000000
    7     1.000000    90.000000     0.000000     0.000000    -1.000000     0.000000     0.000000     0.000000
    8    -1.000000    90.000000     0.000000     0.000000    -1.000000     0.000000     0.000000     0.000000
    9     1.000000   180.000000     0.000000     0.707107     0.707107     0.000000     0.000000     0.000000
   10    -1.000000   180.000000     0.000000     0.707107     0.707107     0.000000     0.000000     0.000000
   11     1.000000    90.000000     0.000000     1.000000     0.000000     0.000000     0.000000     0.000000
   12    -1.000000    90.000000     0.000000     1.000000     0.000000     0.000000     0.000000     0.000000
   13     1.000000   180.000000     0.000000     0.000000     1.000000     0.000000     0.000000     0.000000
   14    -1.000000   180.000000     0.000000     0.000000     1.000000     0.000000     0.000000     0.000000
   15     1.000000   120.000000    -0.577350     0.577350     0.577350     0.000000     0.000000     0.000000
   16    -1.000000   120.000000    -0.577350     0.577350     0.577350     0.000000     0.000000     0.000000
   17     1.000000   120.000000    -0.577350     0.577350    -0.577350     0.000000     0.000000     0.000000
   18    -1.000000   120.000000    -0.577350     0.577350    -0.577350     0.000000     0.000000     0.000000
   19     1.000000    90.000000     0.000000     0.000000     1.000000     0.000000     0.000000     0.000000
   20    -1.000000    90.000000     0.000000     0.000000     1.000000     0.000000     0.000000     0.000000
   21     1.000000    90.000000    -1.000000     0.000000     0.000000     0.000000     0.000000     0.000000
   22    -1.000000    90.000000    -1.000000     0.000000     0.000000     0.000000     0.000000     0.000000
   23     1.000000   180.000000     0.707107     0.000000     0.707107     0.000000     0.000000     0.000000
   24    -1.000000   180.000000     0.707107     0.000000     0.707107     0.000000     0.000000     0.000000
   25     1.000000   120.000000     0.577350    -0.577350     0.577350     0.000000     0.000000     0.000000
   26    -1.000000   120.000000     0.577350    -0.577350     0.577350     0.000000     0.000000     0.000000
   27     1.000000   120.000000    -0.577350    -0.577350     0.577350     0.000000     0.000000     0.000000
   28    -1.000000   120.000000    -0.577350    -0.577350     0.577350     0.000000     0.000000     0.000000
   29     1.000000   180.000000     1.000000     0.000000     0.000000     0.000000     0.000000     0.000000
   30    -1.000000   180.000000     1.000000     0.000000     0.000000     0.000000     0.000000     0.000000
   31     1.000000    90.000000     0.000000    -1.000000     0.000000     0.000000     0.000000     0.000000
   32    -1.000000    90.000000     0.000000    -1.000000     0.000000     0.000000     0.000000     0.000000
   33     1.000000   180.000000     0.707107     0.707107     0.000000     0.000000     0.000000     0.000000
   34    -1.000000   180.000000     0.707107     0.707107     0.000000     0.000000     0.000000     0.000000
   35     1.000000    90.000000     1.000000     0.000000     0.000000     0.000000     0.000000     0.000000
   36    -1.000000    90.000000     1.000000     0.000000     0.000000     0.000000     0.000000     0.000000
   37     1.000000   120.000000     0.577350    -0.577350    -0.577350     0.000000     0.000000     0.000000
   38    -1.000000   120.000000     0.577350    -0.577350    -0.577350     0.000000     0.000000     0.000000
   39     1.000000   180.000000     0.000000     1.000000     0.000000     0.000000     0.000000     0.000000
   40    -1.000000   180.000000     0.000000     1.000000     0.000000     0.000000     0.000000     0.000000
   41     1.000000   120.000000     0.577350     0.577350    -0.577350     0.000000     0.000000     0.000000
   42    -1.000000   120.000000     0.577350     0.577350    -0.577350     0.000000     0.000000     0.000000
   43     1.000000   180.000000     0.000000    -0.707107     0.707107     0.000000     0.000000     0.000000
   44    -1.000000   180.000000     0.000000    -0.707107     0.707107     0.000000     0.000000     0.000000
   45     1.000000   180.000000     0.707107    -0.707107     0.000000     0.000000     0.000000     0.000000
   46    -1.000000   180.000000     0.707107    -0.707107     0.000000     0.000000     0.000000     0.000000
   47     1.000000   180.000000     0.707107     0.000000    -0.707107     0.000000     0.000000     0.000000
   48    -1.000000   180.000000     0.707107     0.000000    -0.707107     0.000000     0.000000     0.000000
 
 Subroutine IBZKPT returns following result:
 ===========================================
 
 Found      4 irreducible k-points:
 
 Following reciprocal coordinates:
            Coordinates               Weight
  0.000000  0.000000  0.000000      1.000000
  0.333333  0.000000  0.000000      8.000000
  0.333333  0.333333  0.000000      6.000000
 -0.333333  0.333333  0.000000     12.000000
 
 Following cartesian coordinates:
            Coordinates               Weight
  0.000000  0.000000  0.000000      1.000000
 -0.023641  0.023641  0.023641      8.000000
  0.000000  0.000000  0.047281      6.000000
  0.047281 -0.047281  0.000000     12.000000
 
 
 Subroutine IBZKPT_HF returns following result:
 ==============================================
 
 Found     27 k-points in 1st BZ
 the following     27 k-points will be used (e.g. in the exchange kernel)
 Following reciprocal coordinates:   # in IRBZ
  0.000000  0.000000  0.000000    0.03703704   1 t-inv F
  0.333333  0.000000  0.000000    0.03703704   2 t-inv F
  0.333333  0.333333  0.000000    0.03703704   3 t-inv F
 -0.333333  0.333333  0.000000    0.03703704   4 t-inv F
 -0.333333  0.000000  0.000000    0.03703704   2 t-inv F
  0.000000  0.333333  0.000000    0.03703704   2 t-inv F
  0.000000 -0.333333  0.000000    0.03703704   2 t-inv F
  0.000000  0.000000  0.333333    0.03703704   2 t-inv F
  0.000000  0.000000 -0.333333    0.03703704   2 t-inv F
  0.333333  0.333333  0.333333    0.03703704   2 t-inv F
 -0.333333 -0.333333 -0.333333    0.03703704   2 t-inv F
 -0.333333 -0.333333  0.000000    0.03703704   3 t-inv F
  0.000000  0.333333  0.333333    0.03703704   3 t-inv F
  0.000000 -0.333333 -0.333333    0.03703704   3 t-inv F
  0.333333  0.000000  0.333333    0.03703704   3 t-inv F
 -0.333333  0.000000 -0.333333    0.03703704   3 t-inv F
  0.333333 -0.333333  0.000000    0.03703704   4 t-inv F
  0.000000 -0.333333  0.333333    0.03703704   4 t-inv F
  0.000000  0.333333 -0.333333    0.03703704   4 t-inv F
  0.333333  0.000000 -0.333333    0.03703704   4 t-inv F
 -0.333333  0.000000  0.333333    0.03703704   4 t-inv F
  0.333333  0.333333  0.666667    0.03703704   4 t-inv F
 -0.333333 -0.333333 -0.666667    0.03703704   4 t-inv F
 -0.333333 -0.666667 -0.333333    0.03703704   4 t-inv F
  0.333333  0.666667  0.333333    0.03703704   4 t-inv F
 -0.666667 -0.333333 -0.333333    0.03703704   4 t-inv F
  0.666667  0.333333  0.333333    0.03703704   4 t-inv F


--------------------------------------------------------------------------------------------------------




 Dimension of arrays:
   k-points           NKPTS =      4   k-points in BZ     NKDIM =      4   number of bands    NBANDS=    648
   number of dos      NEDOS =    301   number of ions     NIONS =     64
   non local maximal  LDIM  =      6   non local SUM 2l+1 LMDIM =     18
   total plane-waves  NPLWV = 343000
   max r-space proj   IRMAX =      1   max aug-charges    IRDMAX=   7004
   dimension x,y,z NGX =    70 NGY =   70 NGZ =   70
   dimension x,y,z NGXF=   120 NGYF=  120 NGZF=  120
   support grid    NGXF=   120 NGYF=  120 NGZF=  120
   ions per type =              64
 NGX,Y,Z   is equivalent  to a cutoff of  11.67, 11.67, 11.67 a.u.
 NGXF,Y,Z  is equivalent  to a cutoff of  20.01, 20.01, 20.01 a.u.


 I would recommend the setting:
   dimension x,y,z NGX =    70 NGY =   70 NGZ =   70
 SYSTEM =  phonon of Zr bcc - omiga                
 POSCAR =  Supercell by Yi Wang                    

 Startparameter for this run:
   NWRITE =      0    write-flag & timer
   PREC   = h         normal or accurate (medium, high low for compatibility)
   ISTART =      0    job   : 0-new  1-cont  2-samecut
   ICHARG =      2    charge: 1-file 2-atom 10-const
   ISPIN  =      2    spin polarized calculation?
   LNONCOLLINEAR =      F non collinear calculations
   LSORBIT =      F    spin-orbit coupling
   INIWAV =      1    electr: 0-lowe 1-rand  2-diag
   LASPH  =      F    aspherical Exc in radial PAW
   METAGGA=      F    non-selfconsistent MetaGGA calc.

 Electronic Relaxation 1
   ENCUT  =  459.9 eV  33.80 Ry    5.81 a.u.  17.43 17.43 17.43*2*pi/ulx,y,z
   ENINI  =  459.9     initial cutoff
   ENAUG  =  703.4 eV  augmentation charge cutoff
   NELM   =     60;   NELMIN=  2; NELMDL= -5     # of ELM steps 
   EDIFF  = 0.1E-05   stopping-criterion for ELM
   LREAL  =      F    real-space projection
   NLSPLINE    = F    spline interpolate recip. space projectors
   LCOMPAT=      F    compatible to vasp.4.4
   GGA_COMPAT  = T    GGA compatible to vasp.4.4-vasp.4.6
   LMAXPAW     = -100 max onsite density
   LMAXMIX     =    2 max onsite mixed and CHGCAR
   VOSKOWN=      0    Vosko Wilk Nusair interpolation
   ROPT   =    0.00000
 Ionic relaxation
   EDIFFG = 0.1E-04   stopping-criterion for IOM
   NSW    =      1    number of steps for IOM
   NBLOCK =      1;   KBLOCK =      1    inner block; outer block 
   IBRION =      8    ionic relax: 0-MD 1-quasi-New 2-CG
   NFREE  =      0    steps in history (QN), initial steepest desc. (CG)
   ISIF   =      2    stress and relaxation
   IWAVPR =     11    prediction:  0-non 1-charg 2-wave 3-comb
   ISYM   =      2    0-nonsym 1-usesym 2-fastsym
   LCORR  =      T    Harris-Foulkes like correction to forces

   POTIM  = 0.5000    time-step for ionic-motion
   TEIN   =    0.0    initial temperature
   TEBEG  =    0.0;   TEEND  =   0.0 temperature during run
   SMASS  =  -3.00    Nose mass-parameter (am)
   estimated Nose-frequenzy (Omega)   =  0.10E-29 period in steps =****** mass=  -0.227E-26a.u.
   SCALEE = 1.0000    scale energy and forces
   NPACO  =    256;   APACO  = 16.0  distance and # of slots for P.C.
   PSTRESS=    0.0 pullay stress

  Mass of Ions in am
   POMASS =  58.69
  Ionic Valenz
   ZVAL   =  16.00
  Atomic Wigner-Seitz radii
   RWIGS  =  -1.00
  virtual crystal weights 
   VCA    =   1.00
   NELECT =    1024.0000    total number of electrons
   NUPDOWN=      -1.0000    fix difference up-down

 DOS related values:
   EMIN   =  10.00;   EMAX   =-10.00  energy-range for DOS
   EFERMI =   0.00
   ISMEAR =     1;   SIGMA  =   0.20  broadening in eV -4-tet -1-fermi 0-gaus

 Electronic relaxation 2 (details)
   IALGO  =     38    algorithm
   LDIAG  =      T    sub-space diagonalisation (order eigenvalues)
   LSUBROT=      F    optimize rotation matrix (better conditioning)
   TURBO    =      0    0=normal 1=particle mesh
   IRESTART =      0    0=no restart 2=restart with 2 vectors
   NREBOOT  =      0    no. of reboots
   NMIN     =      0    reboot dimension
   EREF     =   0.00    reference energy to select bands
   IMIX   =      4    mixing-type and parameters
     AMIX     =   0.40;   BMIX     =  1.00
     AMIX_MAG =   1.60;   BMIX_MAG =  1.00
     AMIN     =   0.10
     WC   =   100.;   INIMIX=   1;  MIXPRE=   1;  MAXMIX= -45

 Intra band minimization:
   WEIMIN = 0.0010     energy-eigenvalue tresh-hold
   EBREAK =  0.39E-09  absolut break condition
   DEPER  =   0.30     relativ break condition  

   TIME   =   0.40     timestep for ELM

  volume/ion in A,a.u.               =      10.95        73.89
  Fermi-wavevector in a.u.,A,eV,Ry     =   1.857701  3.510545 46.954402  3.451051
  Thomas-Fermi vector in A             =   2.906309
 
 Write flags
   LWAVE  =      T    write WAVECAR
   LCHARG =      T    write CHGCAR
   LVTOT  =      F    write LOCPOT, total local potential
   LVHAR  =      F    write LOCPOT, Hartree potential only
   LELF   =      F    write electronic localiz. function (ELF)
   LORBIT =      0    0 simple, 1 ext, 2 COOP (PROOUT)


 Dipole corrections
   LMONO  =      F    monopole corrections only (constant potential shift)
   LDIPOL =      F    correct potential (dipole corrections)
   IDIPOL =      0    1-x, 2-y, 3-z, 4-all directions 
   EPSILON=  1.0000000 bulk dielectric constant

 Exchange correlation treatment:
   GGA     =    --    GGA type
   LEXCH   =     8    internal setting for exchange type
   VOSKOWN=      0    Vosko Wilk Nusair interpolation
   LHFCALC =     F    Hartree Fock is set to
   LHFONE  =     F    Hartree Fock one center treatment
   AEXX    =    0.0000 exact exchange contribution

 Linear response parameters
   LEPSILON=     F    determine dielectric tensor
   LRPA    =     F    only Hartree local field effects (RPA)
   LNABLA  =     F    use nabla operator in PAW spheres
   LVEL    =     F    velocity operator in full k-point grid
   LINTERFAST=   F  fast interpolation
   KINTER  =     0    interpolate to denser k-point grid
   CSHIFT  =0.1000    complex shift for real part using Kramers Kronig
   OMEGAMAX=  -1.0    maximum frequency
   DEG_THRESHOLD= 0.2000000E-02 threshold for treating states as degnerate
   RTIME   =    0.100 relaxation time in fs

 Orbital magnetization related:
   ORBITALMAG=     F  switch on orbital magnetization
   LCHIMAG   =     F  perturbation theory with respect to B field
   DQ        =  0.001000  dq finite difference perturbation B field



--------------------------------------------------------------------------------------------------------


 linear response using symmetry
 charge density and potential will be updated during run
 spin polarized calculation
 Variant of blocked Davidson
 Davidson routine will perform the subspace rotation
 perform sub-space diagonalisation
    after iterative eigenvector-optimisation
 modified Broyden-mixing scheme, WC =      100.0
 initial mixing is a Kerker type mixing with AMIX =  0.4000 and BMIX =      1.0000
 Hartree-type preconditioning will be used
 using additional bands          136
 reciprocal scheme for non local part
 use partial core corrections
 calculate Harris-corrections to forces 
   (improved forces if not selfconsistent)
 use gradient corrections 
 use of overlap-Matrix (Vanderbilt PP)
 Methfessel and Paxton  Order N= 1 SIGMA  =   0.20


--------------------------------------------------------------------------------------------------------


  energy-cutoff  :      459.93
  volume of cell :      700.81
      direct lattice vectors                 reciprocal lattice vectors
     0.000000000  7.050000000  7.050000000    -0.070921986  0.070921986  0.070921986
     7.050000000  0.000000000  7.050000000     0.070921986 -0.070921986  0.070921986
     7.050000000  7.050000000  0.000000000     0.070921986  0.070921986 -0.070921986

  length of vectors
     9.970205615  9.970205615  9.970205615     0.122840483  0.122840483  0.122840483


 
 k-points in units of 2pi/SCALE and weight: Zr 15x15x15                             
   0.00000000  0.00000000  0.00000000       0.037
  -0.02364066  0.02364066  0.02364066       0.296
   0.00000000  0.00000000  0.04728132       0.222
   0.04728132 -0.04728132  0.00000000       0.444
 
 k-points in reciprocal lattice and weights: Zr 15x15x15                             
   0.00000000  0.00000000  0.00000000       0.037
   0.33333333  0.00000000  0.00000000       0.296
   0.33333333  0.33333333  0.00000000       0.222
  -0.33333333  0.33333333  0.00000000       0.444
 
 position of ions in fractional coordinates (direct lattice) 
   0.00000000  0.00000000  0.00000000
   0.00000000  0.00000000  0.25000000
   0.00000000  0.00000000  0.50000000
   0.00000000  0.00000000  0.75000000
   0.00000000  0.25000000  0.00000000
   0.00000000  0.25000000  0.25000000
   0.00000000  0.25000000  0.50000000
   0.00000000  0.25000000  0.75000000
   0.00000000  0.50000000  0.00000000
   0.00000000  0.50000000  0.25000000
   0.00000000  0.50000000  0.50000000
   0.00000000  0.50000000  0.75000000
   0.00000000  0.75000000  0.00000000
   0.00000000  0.75000000  0.25000000
   0.00000000  0.75000000  0.50000000
   0.00000000  0.75000000  0.75000000
   0.25000000  0.00000000  0.00000000
   0.25000000  0.00000000  0.25000000
   0.25000000  0.00000000  0.50000000
   0.25000000  0.00000000  0.75000000
   0.25000000  0.25000000  0.00000000
   0.25000000  0.25000000  0.25000000
   0.25000000  0.25000000  0.50000000
   0.25000000  0.25000000  0.75000000
   0.25000000  0.50000000  0.00000000
   0.25000000  0.50000000  0.25000000
   0.25000000  0.50000000  0.50000000
   0.25000000  0.50000000  0.75000000
   0.25000000  0.75000000  0.00000000
   0.25000000  0.75000000  0.25000000
   0.25000000  0.75000000  0.50000000
   0.25000000  0.75000000  0.75000000
   0.50000000  0.00000000  0.00000000
   0.50000000  0.00000000  0.25000000
   0.50000000  0.00000000  0.50000000
   0.50000000  0.00000000  0.75000000
   0.50000000  0.25000000  0.00000000
   0.50000000  0.25000000  0.25000000
   0.50000000  0.25000000  0.50000000
   0.50000000  0.25000000  0.75000000
   0.50000000  0.50000000  0.00000000
   0.50000000  0.50000000  0.25000000
   0.50000000  0.50000000  0.50000000
   0.50000000  0.50000000  0.75000000
   0.50000000  0.75000000  0.00000000
   0.50000000  0.75000000  0.25000000
   0.50000000  0.75000000  0.50000000
   0.50000000  0.75000000  0.75000000
   0.75000000  0.00000000  0.00000000
   0.75000000  0.00000000  0.25000000
   0.75000000  0.00000000  0.50000000
   0.75000000  0.00000000  0.75000000
   0.75000000  0.25000000  0.00000000
   0.75000000  0.25000000  0.25000000
   0.75000000  0.25000000  0.50000000
   0.75000000  0.25000000  0.75000000
   0.75000000  0.50000000  0.00000000
   0.75000000  0.50000000  0.25000000
   0.75000000  0.50000000  0.50000000
   0.75000000  0.50000000  0.75000000
   0.75000000  0.75000000  0.00000000
   0.75000000  0.75000000  0.25000000
   0.75000000  0.75000000  0.50000000
   0.75000000  0.75000000  0.75000000
 
 position of ions in cartesian coordinates  (Angst):
   0.00000000  0.00000000  0.00000000
   1.76250000  1.76250000  0.00000000
   3.52500000  3.52500000  0.00000000
   5.28750000  5.28750000  0.00000000
   1.76250000  0.00000000  1.76250000
   3.52500000  1.76250000  1.76250000
   5.28750000  3.52500000  1.76250000
   7.05000000  5.28750000  1.76250000
   3.52500000  0.00000000  3.52500000
   5.28750000  1.76250000  3.52500000
   7.05000000  3.52500000  3.52500000
   8.81250000  5.28750000  3.52500000
   5.28750000  0.00000000  5.28750000
   7.05000000  1.76250000  5.28750000
   8.81250000  3.52500000  5.28750000
  10.57500000  5.28750000  5.28750000
   0.00000000  1.76250000  1.76250000
   1.76250000  3.52500000  1.76250000
   3.52500000  5.28750000  1.76250000
   5.28750000  7.05000000  1.76250000
   1.76250000  1.76250000  3.52500000
   3.52500000  3.52500000  3.52500000
   5.28750000  5.28750000  3.52500000
   7.05000000  7.05000000  3.52500000
   3.52500000  1.76250000  5.28750000
   5.28750000  3.52500000  5.28750000
   7.05000000  5.28750000  5.28750000
   8.81250000  7.05000000  5.28750000
   5.28750000  1.76250000  7.05000000
   7.05000000  3.52500000  7.05000000
   8.81250000  5.28750000  7.05000000
  10.57500000  7.05000000  7.05000000
   0.00000000  3.52500000  3.52500000
   1.76250000  5.28750000  3.52500000
   3.52500000  7.05000000  3.52500000
   5.28750000  8.81250000  3.52500000
   1.76250000  3.52500000  5.28750000
   3.52500000  5.28750000  5.28750000
   5.28750000  7.05000000  5.28750000
   7.05000000  8.81250000  5.28750000
   3.52500000  3.52500000  7.05000000
   5.28750000  5.28750000  7.05000000
   7.05000000  7.05000000  7.05000000
   8.81250000  8.81250000  7.05000000
   5.28750000  3.52500000  8.81250000
   7.05000000  5.28750000  8.81250000
   8.81250000  7.05000000  8.81250000
  10.57500000  8.81250000  8.81250000
   0.00000000  5.28750000  5.28750000
   1.76250000  7.05000000  5.28750000
   3.52500000  8.81250000  5.28750000
   5.28750000 10.57500000  5.28750000
   1.76250000  5.28750000  7.05000000
   3.52500000  7.05000000  7.05000000
   5.28750000  8.81250000  7.05000000
   7.05000000 10.57500000  7.05000000
   3.52500000  5.28750000  8.81250000
   5.28750000  7.05000000  8.81250000
   7.05000000  8.81250000  8.81250000
   8.81250000 10.57500000  8.81250000
   5.28750000  5.28750000 10.57500000
   7.05000000  7.05000000 10.57500000
   8.81250000  8.81250000 10.57500000
  10.57500000 10.57500000 10.57500000
 


--------------------------------------------------------------------------------------------------------


 k-point  1 :   0.0000 0.0000 0.0000  plane waves:   15593
 k-point  2 :   0.3333 0.0000 0.0000  plane waves:   15673
 k-point  3 :   0.3333 0.3333 0.0000  plane waves:   15696
 k-point  4 :  -0.3333 0.3333 0.0000  plane waves:   15708

 maximum and minimum number of plane-waves per node :     15708    15593

 maximum number of plane-waves:     15708
 maximum index in each direction: 
   IXMAX=   17   IYMAX=   17   IZMAX=   17
   IXMIN=  -17   IYMIN=  -17   IZMIN=  -17

 NGX is ok and might be reduce to  70
 NGY is ok and might be reduce to  70
 NGZ is ok and might be reduce to  70

 serial   3D FFT for wavefunctions
 parallel 3D FFT for charge:
    minimum data exchange during FFTs selected (reduces bandwidth)


 total amount of memory used by VASP on root node   284302. kBytes
========================================================================

   base      :      30000. kBytes
   nonl-proj :      25139. kBytes
   fftplans  :       8978. kBytes
   grid      :      43350. kBytes
   one-center:       1990. kBytes
   wavefun   :     174845. kBytes
 
     INWAV:  cpu time    0.0000: real time    0.0000
 Broyden mixing: mesh for mixing (old mesh)
   NGX = 35   NGY = 35   NGZ = 35
  (NGX  =120   NGY  =120   NGZ  =120)
  gives a total of  42875 points

 initial charge density was supplied:
 charge density of overlapping atoms calculated
 number of electron    1024.0000000 magnetization      64.0000000
 keeping initial charge density in first step


--------------------------------------------------------------------------------------------------------


 Maximum index for augmentation-charges          841 (set IRDMAX)


--------------------------------------------------------------------------------------------------------


 First call to EWALD:  gamma=   0.200
 Maximum number of real-space cells 3x 3x 3
 Maximum number of reciprocal cells 3x 3x 3

 FEWALD executed in parallel
    FEWALD:  cpu time    0.0050: real time    0.0043


----------------------------------------- Iteration    1(   1)  ---------------------------------------


    POTLOK:  cpu time    0.2910: real time    0.2982
    SETDIJ:  cpu time    0.0470: real time    0.0468
     EDDAV:  cpu time  117.2372: real time  117.1458
       DOS:  cpu time    0.0020: real time    0.0021
    --------------------------------------------
      LOOP:  cpu time  117.5781: real time  117.4941

 eigenvalue-minimisations  : 11544
 total energy-change (2. order) : 0.1598613E+05  (-0.5969612E+05)
 number of electron    1024.0000000 magnetization      64.0000000
 augmentation part     1024.0000000 magnetization      64.0000000

 Free energy of the ion-electron system (eV)
  ---------------------------------------------------
  alpha Z        PSCENC =      9846.09864404
  Ewald energy   TEWEN  =   -153431.04596330
  -Hartree energ DENC   =    -61842.66455302
  -exchange      EXHF   =         0.00000000
  -V(xc)+E(xc)   XCENC  =      5718.00510425
  PAW double counting   =    172361.15642774  -181272.45834873
  entropy T*S    EENTRO =         0.01031429
  eigenvalues    EBANDS =       590.37862261
  atomic energy  EATOM  =    224016.65216645
  Solvation  Ediel_sol  =         0.00000000
  ---------------------------------------------------
  free energy    TOTEN  =     15986.13241433 eV

  energy without entropy =    15986.12210005  energy(sigma->0) =    15986.12897624


--------------------------------------------------------------------------------------------------------




----------------------------------------- Iteration    1(   2)  ---------------------------------------


     EDDAV:  cpu time  108.0716: real time  107.9875
       DOS:  cpu time    0.0020: real time    0.0022
    --------------------------------------------
      LOOP:  cpu time  108.0746: real time  107.9902

 eigenvalue-minimisations  : 10368
 total energy-change (2. order) :-0.1483388E+05  (-0.1440359E+05)
 number of electron    1024.0000000 magnetization      64.0000000
 augmentation part     1024.0000000 magnetization      64.0000000

 Free energy of the ion-electron system (eV)
  ---------------------------------------------------
  alpha Z        PSCENC =      9846.09864404
  Ewald energy   TEWEN  =   -153431.04596330
  -Hartree energ DENC   =    -61842.66455302
  -exchange      EXHF   =         0.00000000
  -V(xc)+E(xc)   XCENC  =      5718.00510425
  PAW double counting   =    172361.15642774  -181272.45834873
  entropy T*S    EENTRO =        -0.01005005
  eigenvalues    EBANDS =    -14243.48517207
  atomic energy  EATOM  =    224016.65216645
  Solvation  Ediel_sol  =         0.00000000
  ---------------------------------------------------
  free energy    TOTEN  =      1152.24825531 eV

  energy without entropy =     1152.25830536  energy(sigma->0) =     1152.25160533


--------------------------------------------------------------------------------------------------------




----------------------------------------- Iteration    1(   3)  ---------------------------------------


     EDDAV:  cpu time  109.0644: real time  108.9771
       DOS:  cpu time    0.0020: real time    0.0024
    --------------------------------------------
      LOOP:  cpu time  109.0674: real time  108.9799

 eigenvalue-minimisations  : 10496
 total energy-change (2. order) :-0.1495251E+04  (-0.1249520E+04)
 number of electron    1024.0000000 magnetization      64.0000000
 augmentation part     1024.0000000 magnetization      64.0000000

 Free energy of the ion-electron system (eV)
  ---------------------------------------------------
  alpha Z        PSCENC =      9846.09864404
  Ewald energy   TEWEN  =   -153431.04596330
  -Hartree energ DENC   =    -61842.66455302
  -exchange      EXHF   =         0.00000000
  -V(xc)+E(xc)   XCENC  =      5718.00510425
  PAW double counting   =    172361.15642774  -181272.45834873
  entropy T*S    EENTRO =         0.12322053
  eigenvalues    EBANDS =    -15738.86896121
  atomic energy  EATOM  =    224016.65216645
  Solvation  Ediel_sol  =         0.00000000
  ---------------------------------------------------
  free energy    TOTEN  =      -343.00226324 eV

  energy without entropy =     -343.12548377  energy(sigma->0) =     -343.04333675


--------------------------------------------------------------------------------------------------------




----------------------------------------- Iteration    1(   4)  ---------------------------------------


     EDDAV:  cpu time  113.8137: real time  113.7225
       DOS:  cpu time    0.0020: real time    0.0024
    --------------------------------------------
      LOOP:  cpu time  113.8167: real time  113.7254

 eigenvalue-minimisations  : 11088
 total energy-change (2. order) :-0.8881706E+02  (-0.8612133E+02)
 number of electron    1024.0000000 magnetization      64.0000000
 augmentation part     1024.0000000 magnetization      64.0000000

 Free energy of the ion-electron system (eV)
  ---------------------------------------------------
  alpha Z        PSCENC =      9846.09864404
  Ewald energy   TEWEN  =   -153431.04596330
  -Hartree energ DENC   =    -61842.66455302
  -exchange      EXHF   =         0.00000000
  -V(xc)+E(xc)   XCENC  =      5718.00510425
  PAW double counting   =    172361.15642774  -181272.45834873
  entropy T*S    EENTRO =         0.16395403
  eigenvalues    EBANDS =    -15827.72675806
  atomic energy  EATOM  =    224016.65216645
  Solvation  Ediel_sol  =         0.00000000
  ---------------------------------------------------
  free energy    TOTEN  =      -431.81932659 eV

  energy without entropy =     -431.98328063  energy(sigma->0) =     -431.87397794


--------------------------------------------------------------------------------------------------------




----------------------------------------- Iteration    1(   5)  ---------------------------------------


     EDDAV:  cpu time  113.5247: real time  113.4342
       DOS:  cpu time    0.0020: real time    0.0024
    CHARGE:  cpu time    5.0902: real time    5.0867
    MIXING:  cpu time    0.0070: real time    0.0060
    --------------------------------------------
      LOOP:  cpu time  118.6250: real time  118.5299

 eigenvalue-minimisations  : 11064
 total energy-change (2. order) :-0.1507794E+01  (-0.1505972E+01)
 number of electron    1023.9993092 magnetization      57.8172378
 augmentation part      573.6026011 magnetization      46.3048763

 Broyden mixing:
  rms(total) = 0.67624E+01    rms(broyden)= 0.67605E+01
  rms(prec ) = 0.92116E+01
  weight for this iteration     100.00

 Free energy of the ion-electron system (eV)
  ---------------------------------------------------
  alpha Z        PSCENC =      9846.09864404
  Ewald energy   TEWEN  =   -153431.04596330
  -Hartree energ DENC   =    -61842.66455302
  -exchange      EXHF   =         0.00000000
  -V(xc)+E(xc)   XCENC  =      5718.00510425
  PAW double counting   =    172361.15642774  -181272.45834873
  entropy T*S    EENTRO =         0.16413022
  eigenvalues    EBANDS =    -15829.23472789
  atomic energy  EATOM  =    224016.65216645
  Solvation  Ediel_sol  =         0.00000000
  ---------------------------------------------------
  free energy    TOTEN  =      -433.32712024 eV

  energy without entropy =     -433.49125046  energy(sigma->0) =     -433.38183031


--------------------------------------------------------------------------------------------------------




----------------------------------------- Iteration    1(   6)  ---------------------------------------


    POTLOK:  cpu time    0.2770: real time    0.2767
    SETDIJ:  cpu time    0.0470: real time    0.0469
     EDDAV:  cpu time  112.0010: real time  111.9135
       DOS:  cpu time    0.0020: real time    0.0023
    CHARGE:  cpu time    4.9312: real time    4.9264
    MIXING:  cpu time    0.0070: real time    0.0066
    --------------------------------------------
      LOOP:  cpu time  117.2652: real time  117.1730

 eigenvalue-minimisations  : 10880
 total energy-change (2. order) : 0.3531013E+02  (-0.5910054E+02)
 number of electron    1023.9992371 magnetization      51.4300640
 augmentation part      629.0134895 magnetization      45.7145710

 Broyden mixing:
  rms(total) = 0.47949E+01    rms(broyden)= 0.47945E+01
  rms(prec ) = 0.60197E+01
  weight for this iteration     100.00

 eigenvalues of (default mixing * dielectric matrix)
  average eigenvalue GAMMA=   0.5687
  0.5687

 Free energy of the ion-electron system (eV)
  ---------------------------------------------------
  alpha Z        PSCENC =      9846.09864404
  Ewald energy   TEWEN  =   -153431.04596330
  -Hartree energ DENC   =    -58659.51583878
  -exchange      EXHF   =         0.00000000
  -V(xc)+E(xc)   XCENC  =      5595.53578543
  PAW double counting   =    168059.86660675  -176661.99259459
  entropy T*S    EENTRO =        -0.33762040
  eigenvalues    EBANDS =    -19163.27817859
  atomic energy  EATOM  =    224016.65216645
  Solvation  Ediel_sol  =         0.00000000
  ---------------------------------------------------
  free energy    TOTEN  =      -398.01699300 eV

  energy without entropy =     -397.67937260  energy(sigma->0) =     -397.90445287


--------------------------------------------------------------------------------------------------------




----------------------------------------- Iteration    1(   7)  ---------------------------------------


    POTLOK:  cpu time    0.2740: real time    0.2743
    SETDIJ:  cpu time    0.0470: real time    0.0472
     EDDAV:  cpu time  111.7990: real time  111.7110
       DOS:  cpu time    0.0020: real time    0.0023
    CHARGE:  cpu time    4.9273: real time    4.9227
    MIXING:  cpu time    0.0070: real time    0.0069
    --------------------------------------------
      LOOP:  cpu time  117.0562: real time  116.9651

 eigenvalue-minimisations  : 10856
 total energy-change (2. order) : 0.2766286E+02  (-0.1133095E+02)
 number of electron    1023.9992673 magnetization      45.9924133
 augmentation part      606.0297735 magnetization      37.8910774

 Broyden mixing:
  rms(total) = 0.60113E+00    rms(broyden)= 0.60081E+00
  rms(prec ) = 0.72976E+00
  weight for this iteration     100.00

 eigenvalues of (default mixing * dielectric matrix)
  average eigenvalue GAMMA=   0.7840
  0.9781  0.5899

 Free energy of the ion-electron system (eV)
  ---------------------------------------------------
  alpha Z        PSCENC =      9846.09864404
  Ewald energy   TEWEN  =   -153431.04596330
  -Hartree energ DENC   =    -59769.15158820
  -exchange      EXHF   =         0.00000000
  -V(xc)+E(xc)   XCENC  =      5637.49427416
  PAW double counting   =    170527.01097091  -179411.13617742
  entropy T*S    EENTRO =        -0.05174962
  eigenvalues    EBANDS =    -17786.22470578
  atomic energy  EATOM  =    224016.65216645
  Solvation  Ediel_sol  =         0.00000000
  ---------------------------------------------------
  free energy    TOTEN  =      -370.35412877 eV

  energy without entropy =     -370.30237916  energy(sigma->0) =     -370.33687890


--------------------------------------------------------------------------------------------------------




----------------------------------------- Iteration    1(   8)  ---------------------------------------


    POTLOK:  cpu time    0.2740: real time    0.2741
    SETDIJ:  cpu time    0.0470: real time    0.0469
     EDDAV:  cpu time  114.0787: real time  113.9865
       DOS:  cpu time    0.0020: real time    0.0023
    CHARGE:  cpu time    4.9173: real time    4.9132
    MIXING:  cpu time    0.0070: real time    0.0072
    --------------------------------------------
      LOOP:  cpu time  119.3259: real time  119.2309

 eigenvalue-minimisations  : 11144
 total energy-change (2. order) : 0.4181307E-01  (-0.1226533E+00)
 number of electron    1023.9992675 magnetization      43.0771011
 augmentation part      605.7320467 magnetization      36.2421376

 Broyden mixing:
  rms(total) = 0.29438E+00    rms(broyden)= 0.29435E+00
  rms(prec ) = 0.39272E+00
  weight for this iteration     100.00

 eigenvalues of (default mixing * dielectric matrix)
  average eigenvalue GAMMA=   1.1425
  0.6053  0.8831  1.9392

 Free energy of the ion-electron system (eV)
  ---------------------------------------------------
  alpha Z        PSCENC =      9846.09864404
  Ewald energy   TEWEN  =   -153431.04596330
  -Hartree energ DENC   =    -59631.54831027
  -exchange      EXHF   =         0.00000000
  -V(xc)+E(xc)   XCENC  =      5633.16768003
  PAW double counting   =    171203.66162327  -180191.48924543
  entropy T*S    EENTRO =        -0.06835065
  eigenvalues    EBANDS =    -17815.74055983
  atomic energy  EATOM  =    224016.65216645
  Solvation  Ediel_sol  =         0.00000000
  ---------------------------------------------------
  free energy    TOTEN  =      -370.31231571 eV

  energy without entropy =     -370.24396505  energy(sigma->0) =     -370.28953215


--------------------------------------------------------------------------------------------------------




----------------------------------------- Iteration    1(   9)  ---------------------------------------


    POTLOK:  cpu time    0.2740: real time    0.2741
    SETDIJ:  cpu time    0.0470: real time    0.0469
     EDDAV:  cpu time  119.2449: real time  119.1489
       DOS:  cpu time    0.0020: real time    0.0023
    CHARGE:  cpu time    4.9253: real time    4.9214
    MIXING:  cpu time    0.0080: real time    0.0077
    --------------------------------------------
      LOOP:  cpu time  124.5021: real time  124.4020

 eigenvalue-minimisations  : 11800
 total energy-change (2. order) : 0.1402280E+00  (-0.2005976E-01)
 number of electron    1023.9992665 magnetization      43.3162818
 augmentation part      606.4767355 magnetization      37.2500013

 Broyden mixing:
  rms(total) = 0.77349E-01    rms(broyden)= 0.77338E-01
  rms(prec ) = 0.79927E-01
  weight for this iteration     100.00

 eigenvalues of (default mixing * dielectric matrix)
  average eigenvalue GAMMA=   1.0972
  2.1963  0.9548  0.6189  0.6189

 Free energy of the ion-electron system (eV)
  ---------------------------------------------------
  alpha Z        PSCENC =      9846.09864404
  Ewald energy   TEWEN  =   -153431.04596330
  -Hartree energ DENC   =    -59486.43149620
  -exchange      EXHF   =         0.00000000
  -V(xc)+E(xc)   XCENC  =      5628.38526211
  PAW double counting   =    171712.83669423  -180770.58589566
  entropy T*S    EENTRO =        -0.08672581
  eigenvalues    EBANDS =    -17885.99477357
  atomic energy  EATOM  =    224016.65216645
  Solvation  Ediel_sol  =         0.00000000
  ---------------------------------------------------
  free energy    TOTEN  =      -370.17208771 eV

  energy without entropy =     -370.08536190  energy(sigma->0) =     -370.14317911


--------------------------------------------------------------------------------------------------------




----------------------------------------- Iteration    1(  10)  ---------------------------------------


    POTLOK:  cpu time    0.2740: real time    0.2741
    SETDIJ:  cpu time    0.0480: real time    0.0470
     EDDAV:  cpu time  117.9051: real time  117.8113
       DOS:  cpu time    0.0030: real time    0.0023
    CHARGE:  cpu time    4.9223: real time    4.9188
    MIXING:  cpu time    0.0080: real time    0.0082
    --------------------------------------------
      LOOP:  cpu time  123.1603: real time  123.0624

 eigenvalue-minimisations  : 11624
 total energy-change (2. order) :-0.4840926E-02  (-0.1252851E-02)
 number of electron    1023.9992666 magnetization      43.9004347
 augmentation part      606.4724394 magnetization      37.7691208

 Broyden mixing:
  rms(total) = 0.30785E-01    rms(broyden)= 0.30782E-01
  rms(prec ) = 0.31910E-01
  weight for this iteration     100.00

 eigenvalues of (default mixing * dielectric matrix)
  average eigenvalue GAMMA=   1.2465
  2.2997  1.7036  1.0030  0.6131  0.6131

 Free energy of the ion-electron system (eV)
  ---------------------------------------------------
  alpha Z        PSCENC =      9846.09864404
  Ewald energy   TEWEN  =   -153431.04596330
  -Hartree energ DENC   =    -59478.20735811
  -exchange      EXHF   =         0.00000000
  -V(xc)+E(xc)   XCENC  =      5628.16255053
  PAW double counting   =    171807.69278769  -180871.20953787
  entropy T*S    EENTRO =        -0.08580494
  eigenvalues    EBANDS =    -17888.23441312
  atomic energy  EATOM  =    224016.65216645
  Solvation  Ediel_sol  =         0.00000000
  ---------------------------------------------------
  free energy    TOTEN  =      -370.17692864 eV

  energy without entropy =     -370.09112370  energy(sigma->0) =     -370.14832699


--------------------------------------------------------------------------------------------------------




----------------------------------------- Iteration    1(  11)  ---------------------------------------


    POTLOK:  cpu time    0.2740: real time    0.2745
    SETDIJ:  cpu time    0.0470: real time    0.0469
     EDDAV:  cpu time  113.4997: real time  113.4104
       DOS:  cpu time    0.0010: real time    0.0023
    CHARGE:  cpu time    4.9952: real time    4.9908
    MIXING:  cpu time    0.0090: real time    0.0086
    --------------------------------------------
      LOOP:  cpu time  118.8269: real time  118.7341

 eigenvalue-minimisations  : 11064
 total energy-change (2. order) :-0.3336672E-02  (-0.5344750E-03)
 number of electron    1023.9992667 magnetization      43.8982158
 augmentation part      606.4027061 magnetization      37.6247363

 Broyden mixing:
  rms(total) = 0.10188E-01    rms(broyden)= 0.10184E-01
  rms(prec ) = 0.12939E-01
  weight for this iteration     100.00

 eigenvalues of (default mixing * dielectric matrix)
  average eigenvalue GAMMA=   1.1827
  2.3807  1.7542  1.0153  0.6941  0.6517  0.6003

 Free energy of the ion-electron system (eV)
  ---------------------------------------------------
  alpha Z        PSCENC =      9846.09864404
  Ewald energy   TEWEN  =   -153431.04596330
  -Hartree energ DENC   =    -59479.56311745
  -exchange      EXHF   =         0.00000000
  -V(xc)+E(xc)   XCENC  =      5628.20712534
  PAW double counting   =    171918.24466617  -180983.55839167
  entropy T*S    EENTRO =        -0.08420688
  eigenvalues    EBANDS =    -17885.13118799
  atomic energy  EATOM  =    224016.65216645
  Solvation  Ediel_sol  =         0.00000000
  ---------------------------------------------------
  free energy    TOTEN  =      -370.18026531 eV

  energy without entropy =     -370.09605843  energy(sigma->0) =     -370.15219635


--------------------------------------------------------------------------------------------------------




----------------------------------------- Iteration    1(  12)  ---------------------------------------


    POTLOK:  cpu time    0.2740: real time    0.2739
    SETDIJ:  cpu time    0.0480: real time    0.0469
     EDDAV:  cpu time  111.3501: real time  111.2634
       DOS:  cpu time    0.0020: real time    0.0023
    CHARGE:  cpu time    4.9812: real time    4.9770
    MIXING:  cpu time    0.0100: real time    0.0091
    --------------------------------------------
      LOOP:  cpu time  116.6653: real time  116.5733

 eigenvalue-minimisations  : 10792
 total energy-change (2. order) :-0.3292842E-04  (-0.6136244E-04)
 number of electron    1023.9992666 magnetization      43.8828588
 augmentation part      606.4451766 magnetization      37.6091710

 Broyden mixing:
  rms(total) = 0.28329E-02    rms(broyden)= 0.28300E-02
  rms(prec ) = 0.29831E-02
  weight for this iteration     100.00

 eigenvalues of (default mixing * dielectric matrix)
  average eigenvalue GAMMA=   1.1884
  2.4286  1.6925  1.3212  0.9374  0.7053  0.6050  0.6286

 Free energy of the ion-electron system (eV)
  ---------------------------------------------------
  alpha Z        PSCENC =      9846.09864404
  Ewald energy   TEWEN  =   -153431.04596330
  -Hartree energ DENC   =    -59476.67140217
  -exchange      EXHF   =         0.00000000
  -V(xc)+E(xc)   XCENC  =      5628.09592104
  PAW double counting   =    171937.30536817  -181002.63210118
  entropy T*S    EENTRO =        -0.08569493
  eigenvalues    EBANDS =    -17887.89723635
  atomic energy  EATOM  =    224016.65216645
  Solvation  Ediel_sol  =         0.00000000
  ---------------------------------------------------
  free energy    TOTEN  =      -370.18029824 eV

  energy without entropy =     -370.09460331  energy(sigma->0) =     -370.15173326


--------------------------------------------------------------------------------------------------------




----------------------------------------- Iteration    1(  13)  ---------------------------------------


    POTLOK:  cpu time    0.2730: real time    0.2737
    SETDIJ:  cpu time    0.0480: real time    0.0469
     EDDAV:  cpu time  108.5575: real time  108.4705
       DOS:  cpu time    0.0020: real time    0.0023
    CHARGE:  cpu time    4.9912: real time    4.9880
    MIXING:  cpu time    0.0110: real time    0.0097
    --------------------------------------------
      LOOP:  cpu time  113.8827: real time  113.7918

 eigenvalue-minimisations  : 10432
 total energy-change (2. order) :-0.8214847E-05  (-0.3008822E-05)
 number of electron    1023.9992666 magnetization      43.8735311
 augmentation part      606.4538126 magnetization      37.6004673

 Broyden mixing:
  rms(total) = 0.19921E-02    rms(broyden)= 0.19919E-02
  rms(prec ) = 0.26351E-02
  weight for this iteration     100.00

 eigenvalues of (default mixing * dielectric matrix)
  average eigenvalue GAMMA=   1.2430
  2.4411  1.8524  1.8524  1.0230  0.6135  0.6135  0.7741  0.7741

 Free energy of the ion-electron system (eV)
  ---------------------------------------------------
  alpha Z        PSCENC =      9846.09864404
  Ewald energy   TEWEN  =   -153431.04596330
  -Hartree energ DENC   =    -59476.44152930
  -exchange      EXHF   =         0.00000000
  -V(xc)+E(xc)   XCENC  =      5628.08441546
  PAW double counting   =    171948.57646001  -181013.59431778
  entropy T*S    EENTRO =        -0.08614162
  eigenvalues    EBANDS =    -17888.42404041
  atomic energy  EATOM  =    224016.65216645
  Solvation  Ediel_sol  =         0.00000000
  ---------------------------------------------------
  free energy    TOTEN  =      -370.18030645 eV

  energy without entropy =     -370.09416483  energy(sigma->0) =     -370.15159258


--------------------------------------------------------------------------------------------------------




----------------------------------------- Iteration    1(  14)  ---------------------------------------


    POTLOK:  cpu time    0.2750: real time    0.2742
    SETDIJ:  cpu time    0.0470: real time    0.0469
     EDDAV:  cpu time   99.0749: real time   98.9951
       DOS:  cpu time    0.0020: real time    0.0023
    CHARGE:  cpu time    4.9892: real time    4.9864
    MIXING:  cpu time    0.0120: real time    0.0103
    --------------------------------------------
      LOOP:  cpu time  104.4001: real time  104.3158

 eigenvalue-minimisations  :  9216
 total energy-change (2. order) : 0.2141242E-04  (-0.9310773E-06)
 number of electron    1023.9992666 magnetization      43.8732059
 augmentation part      606.4485712 magnetization      37.6006276

 Broyden mixing:
  rms(total) = 0.57578E-03    rms(broyden)= 0.57569E-03
  rms(prec ) = 0.74197E-03
  weight for this iteration     100.00

 eigenvalues of (default mixing * dielectric matrix)
  average eigenvalue GAMMA=   1.2722
  2.5413  2.4191  1.7819  1.1140  0.8508  0.8508  0.6108  0.6212  0.6595

 Free energy of the ion-electron system (eV)
  ---------------------------------------------------
  alpha Z        PSCENC =      9846.09864404
  Ewald energy   TEWEN  =   -153431.04596330
  -Hartree energ DENC   =    -59477.12624546
  -exchange      EXHF   =         0.00000000
  -V(xc)+E(xc)   XCENC  =      5628.10860763
  PAW double counting   =    171958.24721147  -181022.94671527
  entropy T*S    EENTRO =        -0.08622306
  eigenvalues    EBANDS =    -17888.08176754
  atomic energy  EATOM  =    224016.65216645
  Solvation  Ediel_sol  =         0.00000000
  ---------------------------------------------------
  free energy    TOTEN  =      -370.18028504 eV

  energy without entropy =     -370.09406198  energy(sigma->0) =     -370.15154402


--------------------------------------------------------------------------------------------------------




----------------------------------------- Iteration    1(  15)  ---------------------------------------


    POTLOK:  cpu time    0.2740: real time    0.2739
    SETDIJ:  cpu time    0.0470: real time    0.0469
     EDDAV:  cpu time   69.9264: real time   69.8693
       DOS:  cpu time    0.0020: real time    0.0023
    CHARGE:  cpu time    4.9972: real time    4.9932
    MIXING:  cpu time    0.0110: real time    0.0110
    --------------------------------------------
      LOOP:  cpu time   75.2576: real time   75.1986

 eigenvalue-minimisations  :  5480
 total energy-change (2. order) : 0.6289105E-05  (-0.1205099E-06)
 number of electron    1023.9992666 magnetization      43.8747630
 augmentation part      606.4464094 magnetization      37.6021594

 Broyden mixing:
  rms(total) = 0.20146E-03    rms(broyden)= 0.20139E-03
  rms(prec ) = 0.20224E-03
  weight for this iteration     100.00

 eigenvalues of (default mixing * dielectric matrix)
  average eigenvalue GAMMA=   1.2475
  2.6246  2.4327  1.6991  1.2875  0.9099  0.9099  0.7470  0.6138  0.6158  0.6344

 Free energy of the ion-electron system (eV)
  ---------------------------------------------------
  alpha Z        PSCENC =      9846.09864404
  Ewald energy   TEWEN  =   -153431.04596330
  -Hartree energ DENC   =    -59477.34997406
  -exchange      EXHF   =         0.00000000
  -V(xc)+E(xc)   XCENC  =      5628.11700209
  PAW double counting   =    171960.67015846  -181025.28498353
  entropy T*S    EENTRO =        -0.08615941
  eigenvalues    EBANDS =    -17887.95116949
  atomic energy  EATOM  =    224016.65216645
  Solvation  Ediel_sol  =         0.00000000
  ---------------------------------------------------
  free energy    TOTEN  =      -370.18027875 eV

  energy without entropy =     -370.09411934  energy(sigma->0) =     -370.15155895


--------------------------------------------------------------------------------------------------------




----------------------------------------- Iteration    1(  16)  ---------------------------------------


    POTLOK:  cpu time    0.2750: real time    0.2749
    SETDIJ:  cpu time    0.0470: real time    0.0469
     EDDAV:  cpu time   69.6064: real time   69.5516
       DOS:  cpu time    0.0020: real time    0.0023
    --------------------------------------------
      LOOP:  cpu time   69.9314: real time   69.8764

 eigenvalue-minimisations  :  5424
 total energy-change (2. order) : 0.2750312E-07  (-0.2106083E-07)
 number of electron    1023.9992666 magnetization      43.8747630
 augmentation part      606.4464094 magnetization      37.6021594

 Free energy of the ion-electron system (eV)
  ---------------------------------------------------
  alpha Z        PSCENC =      9846.09864404
  Ewald energy   TEWEN  =   -153431.04596330
  -Hartree energ DENC   =    -59477.35541567
  -exchange      EXHF   =         0.00000000
  -V(xc)+E(xc)   XCENC  =      5628.11758825
  PAW double counting   =    171960.59701897  -181025.20723434
  entropy T*S    EENTRO =        -0.08611992
  eigenvalues    EBANDS =    -17887.95096319
  atomic energy  EATOM  =    224016.65216645
  Solvation  Ediel_sol  =         0.00000000
  ---------------------------------------------------
  free energy    TOTEN  =      -370.18027872 eV

  energy without entropy =     -370.09415880  energy(sigma->0) =     -370.15157208


--------------------------------------------------------------------------------------------------------




 average (electrostatic) potential at core
  the test charge radii are     0.8614
  (the norm of the test charge is              1.0000)
       1 -79.4463       2 -79.4463       3 -79.4463       4 -79.4463       5 -79.4463
       6 -79.4463       7 -79.4463       8 -79.4463       9 -79.4463      10 -79.4463
      11 -79.4463      12 -79.4463      13 -79.4463      14 -79.4463      15 -79.4463
      16 -79.4463      17 -79.4463      18 -79.4463      19 -79.4463      20 -79.4463
      21 -79.4463      22 -79.4463      23 -79.4463      24 -79.4463      25 -79.4463
      26 -79.4463      27 -79.4463      28 -79.4463      29 -79.4463      30 -79.4463
      31 -79.4463      32 -79.4463      33 -79.4463      34 -79.4463      35 -79.4463
      36 -79.4463      37 -79.4463      38 -79.4463      39 -79.4463      40 -79.4463
      41 -79.4463      42 -79.4463      43 -79.4463      44 -79.4463      45 -79.4463
      46 -79.4463      47 -79.4463      48 -79.4463      49 -79.4463      50 -79.4463
      51 -79.4463      52 -79.4463      53 -79.4463      54 -79.4463      55 -79.4463
      56 -79.4463      57 -79.4463      58 -79.4463      59 -79.4463      60 -79.4463
      61 -79.4463      62 -79.4463      63 -79.4463      64 -79.4463
 
 
 
 E-fermi :   7.8083     XC(G=0): -13.7432     alpha+bet :-14.7865


 spin component 1

 k-point     1 :       0.0000    0.0000    0.0000
  band No.  band energies     occupation 
      1     -56.2788      1.00000
      2     -56.2788      1.00000
      3     -56.2788      1.00000
      4     -56.2788      1.00000
      5     -56.2678      1.00000
      6     -56.2678      1.00000
      7     -56.2678      1.00000
      8     -56.2433      1.00000
      9     -56.2433      1.00000
     10     -56.2433      1.00000
     11     -56.2433      1.00000
     12     -56.2433      1.00000
     13     -56.2433      1.00000
     14     -56.2433      1.00000
     15     -56.2433      1.00000
     16     -56.2433      1.00000
     17     -56.2433      1.00000
     18     -56.2433      1.00000
     19     -56.2433      1.00000
     20     -56.2433      1.00000
     21     -56.2433      1.00000
     22     -56.2433      1.00000
     23     -56.2433      1.00000
     24     -56.2433      1.00000
     25     -56.2433      1.00000
     26     -56.2432      1.00000
     27     -56.2432      1.00000
     28     -56.2432      1.00000
     29     -56.2432      1.00000
     30     -56.2432      1.00000
     31     -56.2432      1.00000
     32     -56.2190      1.00000
     33     -56.2190      1.00000
     34     -56.2190      1.00000
     35     -56.2190      1.00000
     36     -56.2190      1.00000
     37     -56.2190      1.00000
     38     -56.2190      1.00000
     39     -56.2190      1.00000
     40     -56.2190      1.00000
     41     -56.2190      1.00000
     42     -56.2190      1.00000
     43     -56.2190      1.00000
     44     -56.2076      1.00000
     45     -56.2076      1.00000
     46     -56.2076      1.00000
     47     -56.2076      1.00000
     48     -56.2076      1.00000
     49     -56.2076      1.00000
     50     -56.2076      1.00000
     51     -56.2076      1.00000
     52     -56.2076      1.00000
     53     -56.2076      1.00000
     54     -56.2076      1.00000
     55     -56.2076      1.00000
     56     -56.1741      1.00000
     57     -56.1741      1.00000
     58     -56.1740      1.00000
     59     -56.1740      1.00000
     60     -56.1740      1.00000
     61     -56.1740      1.00000
     62     -56.1740      1.00000
     63     -56.1740      1.00000
     64     -56.1696      1.00000
     65     -56.1696      1.00000
     66     -56.1696      1.00000
     67     -56.1696      1.00000
     68     -56.1696      1.00000
     69     -56.1696      1.00000
     70     -56.1576      1.00000
     71     -56.1576      1.00000
     72     -56.1576      1.00000
     73     -56.1576      1.00000
     74     -56.1576      1.00000
     75     -56.1576      1.00000
     76     -56.1576      1.00000
     77     -56.1576      1.00000
     78     -56.1576      1.00000
     79     -56.1576      1.00000
     80     -56.1576      1.00000
     81     -56.1576      1.00000
     82     -56.1530      1.00000
     83     -56.1530      1.00000
     84     -56.1530      1.00000
     85     -56.1530      1.00000
     86     -56.1530      1.00000
     87     -56.1530      1.00000
     88     -56.1530      1.00000
     89     -56.1530      1.00000
     90     -56.1530      1.00000
     91     -56.1530      1.00000
     92     -56.1530      1.00000
     93     -56.1530      1.00000
     94     -56.1530      1.00000
     95     -56.1530      1.00000
     96     -56.1530      1.00000
     97     -56.1530      1.00000
     98     -56.1530      1.00000
     99     -56.1530      1.00000
    100     -56.1530      1.00000
    101     -56.1530      1.00000
    102     -56.1530      1.00000
    103     -56.1530      1.00000
    104     -56.1530      1.00000
    105     -56.1530      1.00000
    106     -56.1483      1.00000
    107     -56.1483      1.00000
    108     -56.1483      1.00000
    109     -56.1483      1.00000
    110     -56.1483      1.00000
    111     -56.1483      1.00000
    112     -56.1470      1.00000
    113     -56.1470      1.00000
    114     -56.1470      1.00000
    115     -56.1469      1.00000
    116     -56.1469      1.00000
    117     -56.1469      1.00000
    118     -56.1226      1.00000
    119     -56.1226      1.00000
    120     -56.1226      1.00000
    121     -56.1226      1.00000
    122     -56.1226      1.00000
    123     -56.1226      1.00000
    124     -56.1226      1.00000
    125     -56.1226      1.00000
    126     -56.1226      1.00000
    127     -56.1226      1.00000
    128     -56.1226      1.00000
    129     -56.1226      1.00000
    130     -56.1225      1.00000
    131     -56.1225      1.00000
    132     -56.1225      1.00000
    133     -56.1225      1.00000
    134     -56.1225      1.00000
    135     -56.1225      1.00000
    136     -56.1225      1.00000
    137     -56.1225      1.00000
    138     -56.1225      1.00000
    139     -56.1225      1.00000
    140     -56.1225      1.00000
    141     -56.1225      1.00000
    142     -56.1074      1.00000
    143     -56.1074      1.00000
    144     -56.1074      1.00000
    145     -56.1074      1.00000
    146     -56.1074      1.00000
    147     -56.1074      1.00000
    148     -56.1074      1.00000
    149     -56.1074      1.00000
    150     -56.1074      1.00000
    151     -56.1074      1.00000
    152     -56.1074      1.00000
    153     -56.1074      1.00000
    154     -56.0983      1.00000
    155     -56.0983      1.00000
    156     -56.0983      1.00000
    157     -56.0983      1.00000
    158     -56.0983      1.00000
    159     -56.0983      1.00000
    160     -56.0983      1.00000
    161     -56.0983      1.00000
    162     -56.0983      1.00000
    163     -56.0983      1.00000
    164     -56.0983      1.00000
    165     -56.0983      1.00000
    166     -56.0981      1.00000
    167     -56.0981      1.00000
    168     -56.0981      1.00000
    169     -56.0981      1.00000
    170     -56.0981      1.00000
    171     -56.0981      1.00000
    172     -56.0981      1.00000
    173     -56.0981      1.00000
    174     -56.0830      1.00000
    175     -56.0830      1.00000
    176     -56.0830      1.00000
    177     -56.0830      1.00000
    178     -56.0830      1.00000
    179     -56.0830      1.00000
    180     -56.0830      1.00000
    181     -56.0830      1.00000
    182     -56.0830      1.00000
    183     -56.0830      1.00000
    184     -56.0830      1.00000
    185     -56.0830      1.00000
    186     -56.0830      1.00000
    187     -56.0830      1.00000
    188     -56.0830      1.00000
    189     -56.0830      1.00000
    190     -56.0677      1.00000
    191     -56.0676      1.00000
    192     -56.0676      1.00000
    193      -1.2235      1.00000
    194       0.9980      1.00000
    195       0.9980      1.00000
    196       0.9980      1.00000
    197       0.9980      1.00000
    198       0.9980      1.00000
    199       0.9980      1.00000
    200       0.9980      1.00000
    201       0.9980      1.00000
    202       1.6522      1.00000
    203       1.6522      1.00000
    204       1.6522      1.00000
    205       1.6522      1.00000
    206       1.6522      1.00000
    207       1.6522      1.00000
    208       2.9459      1.00000
    209       2.9459      1.00000
    210       2.9459      1.00000
    211       2.9459      1.00000
    212       3.1274      1.00000
    213       3.1274      1.00000
    214       3.1274      1.00000
    215       3.5423      1.00000
    216       3.5423      1.00000
    217       3.5423      1.00000
    218       3.5423      1.00000
    219       3.5423      1.00000
    220       3.5423      1.00000
    221       3.5423      1.00000
    222       3.5423      1.00000
    223       3.5423      1.00000
    224       3.5423      1.00000
    225       3.5423      1.00000
    226       3.5423      1.00000
    227       3.5889      1.00000
    228       3.5889      1.00000
    229       3.5889      1.00000
    230       3.6866      1.00000
    231       3.6866      1.00000
    232       3.6866      1.00000
    233       3.6866      1.00000
    234       3.6866      1.00000
    235       3.6866      1.00000
    236       3.6866      1.00000
    237       3.6866      1.00000
    238       3.6866      1.00000
    239       3.6866      1.00000
    240       3.6866      1.00000
    241       3.6866      1.00000
    242       3.6867      1.00000
    243       3.6867      1.00000
    244       3.6867      1.00000
    245       3.6867      1.00000
    246       3.6867      1.00000
    247       3.6867      1.00000
    248       3.6867      1.00000
    249       3.6867      1.00000
    250       3.6867      1.00000
    251       3.6867      1.00000
    252       3.6867      1.00000
    253       3.6867      1.00000
    254       4.0074      1.00000
    255       4.0074      1.00000
    256       4.0074      1.00000
    257       4.0074      1.00000
    258       4.0074      1.00000
    259       4.0074      1.00000
    260       4.3277      1.00000
    261       4.3277      1.00000
    262       4.3277      1.00000
    263       4.3277      1.00000
    264       4.3277      1.00000
    265       4.3277      1.00000
    266       4.3277      1.00000
    267       4.3277      1.00000
    268       4.3277      1.00000
    269       4.3277      1.00000
    270       4.3277      1.00000
    271       4.3277      1.00000
    272       4.3277      1.00000
    273       4.3277      1.00000
    274       4.3277      1.00000
    275       4.3277      1.00000
    276       4.3277      1.00000
    277       4.3277      1.00000
[...]
      3.525000  3.525000  3.525000    -0.007110    0.059329   -0.002106  
      5.287500  5.287500  3.525000     0.038254    0.007230    0.054175  
      7.050000  7.050000  3.525000     0.116863   -0.020845    0.032002  
      3.525000  1.762500  5.287500     0.108973    0.007165    0.021847  
      5.287500  3.525000  5.287500     0.053392    0.017057    0.039176  
      7.050000  5.287500  5.287500     0.040744    0.090832    0.027595  
      8.812500  7.050000  5.287500     0.096326    0.080939    0.010267  
      5.287500  1.762500  7.050000     0.051548   -0.151896    0.064269  
      7.050000  3.525000  7.050000    -0.062046   -0.016129    0.013735  
      8.812500  5.287500  7.050000    -0.097721    0.075828    0.007000  
     10.575000  7.050000  7.050000     0.015873   -0.059939    0.057534  
      0.000000  3.525000  3.525000     0.003434    0.015409   -0.054672  
      1.762500  5.287500  3.525000    -0.075174    0.043483   -0.032499  
      3.525000  7.050000  3.525000    -0.029810   -0.008616    0.023783  
      5.287500  8.812500  3.525000     0.048799   -0.036691    0.001609  
      1.762500  3.525000  5.287500     0.118872    0.048595   -0.029231  
      3.525000  5.287500  5.287500     0.063291    0.058488   -0.011903  
      5.287500  7.050000  5.287500     0.050643    0.132262   -0.023484  
      7.050000  8.812500  5.287500     0.106225    0.122370   -0.040812  
      3.525000  3.525000  7.050000     0.179374    0.006323    0.012051  
      5.287500  5.287500  7.050000     0.065781    0.142090   -0.038483  
      7.050000  7.050000  7.050000     0.030106    0.234047   -0.045218  
      8.812500  8.812500  7.050000     0.143699    0.098280    0.005316  
      5.287500  3.525000  8.812500     0.063937   -0.026863   -0.013390  
      7.050000  5.287500  8.812500    -0.072684    0.127086   -0.059079  
      8.812500  7.050000  8.812500    -0.050347    0.093168    0.002048  
     10.575000  8.812500  8.812500     0.086274   -0.060781    0.047737  
      0.000000  5.287500  5.287500    -0.040744   -0.090832   -0.027595  
      1.762500  7.050000  5.287500    -0.096326   -0.080939   -0.010267  
      3.525000  8.812500  5.287500    -0.108973   -0.007165   -0.021847  
      5.287500 10.575000  5.287500    -0.053392   -0.017057   -0.039176  
      1.762500  5.287500  7.050000     0.097721   -0.075828   -0.007000  
      3.525000  7.050000  7.050000    -0.015873    0.059939   -0.057534  
      5.287500  8.812500  7.050000    -0.051548    0.151896   -0.064269  
      7.050000 10.575000  7.050000     0.062046    0.016129   -0.013735  
      3.525000  5.287500  8.812500     0.100211    0.007774   -0.033580  
      5.287500  7.050000  8.812500    -0.036410    0.161724   -0.079268  
      7.050000  8.812500  8.812500    -0.014073    0.127806   -0.018141  
      8.812500 10.575000  8.812500     0.122548   -0.026143    0.027547  
      5.287500  5.287500 10.575000    -0.038254   -0.007230   -0.054175  
      7.050000  7.050000 10.575000    -0.116863    0.020845   -0.032002  
      8.812500  8.812500 10.575000    -0.071499   -0.031255    0.024280  
     10.575000 10.575000 10.575000     0.007110   -0.059329    0.002106  
 
 190 f  =    0.000002 THz     0.000011 2PiTHz    0.000056 cm-1     0.000007 meV
             X         Y         Z           dx          dy          dz
      0.000000  0.000000  0.000000    -0.112298    0.054900    0.000009  
      1.762500  1.762500  0.000000    -0.112298    0.054900    0.000009  
      3.525000  3.525000  0.000000    -0.112298    0.054900    0.000009  
      5.287500  5.287500  0.000000    -0.112298    0.054900    0.000009  
      1.762500  0.000000  1.762500    -0.112298    0.054900    0.000009  
      3.525000  1.762500  1.762500    -0.112298    0.054900    0.000009  
      5.287500  3.525000  1.762500    -0.112298    0.054900    0.000009  
      7.050000  5.287500  1.762500    -0.112298    0.054900    0.000009  
      3.525000  0.000000  3.525000    -0.112298    0.054900    0.000009  
      5.287500  1.762500  3.525000    -0.112298    0.054900    0.000009  
      7.050000  3.525000  3.525000    -0.112298    0.054900    0.000009  
      8.812500  5.287500  3.525000    -0.112298    0.054900    0.000009  
      5.287500  0.000000  5.287500    -0.112298    0.054900    0.000009  
      7.050000  1.762500  5.287500    -0.112298    0.054900    0.000009  
      8.812500  3.525000  5.287500    -0.112298    0.054900    0.000009  
     10.575000  5.287500  5.287500    -0.112298    0.054900    0.000009  
      0.000000  1.762500  1.762500    -0.112298    0.054900    0.000009  
      1.762500  3.525000  1.762500    -0.112298    0.054900    0.000009  
      3.525000  5.287500  1.762500    -0.112298    0.054900    0.000009  
      5.287500  7.050000  1.762500    -0.112298    0.054900    0.000009  
      1.762500  1.762500  3.525000    -0.112298    0.054900    0.000009  
      3.525000  3.525000  3.525000    -0.112298    0.054900    0.000009  
      5.287500  5.287500  3.525000    -0.112298    0.054900    0.000009  
      7.050000  7.050000  3.525000    -0.112298    0.054900    0.000009  
      3.525000  1.762500  5.287500    -0.112298    0.054900    0.000009  
      5.287500  3.525000  5.287500    -0.112298    0.054900    0.000009  
      7.050000  5.287500  5.287500    -0.112298    0.054900    0.000009  
      8.812500  7.050000  5.287500    -0.112298    0.054900    0.000009  
      5.287500  1.762500  7.050000    -0.112298    0.054900    0.000009  
      7.050000  3.525000  7.050000    -0.112298    0.054900    0.000009  
      8.812500  5.287500  7.050000    -0.112298    0.054900    0.000009  
     10.575000  7.050000  7.050000    -0.112298    0.054900    0.000009  
      0.000000  3.525000  3.525000    -0.112298    0.054900    0.000009  
      1.762500  5.287500  3.525000    -0.112298    0.054900    0.000009  
      3.525000  7.050000  3.525000    -0.112298    0.054900    0.000009  
      5.287500  8.812500  3.525000    -0.112298    0.054900    0.000009  
      1.762500  3.525000  5.287500    -0.112298    0.054900    0.000009  
      3.525000  5.287500  5.287500    -0.112298    0.054900    0.000009  
      5.287500  7.050000  5.287500    -0.112298    0.054900    0.000009  
      7.050000  8.812500  5.287500    -0.112298    0.054900    0.000009  
      3.525000  3.525000  7.050000    -0.112298    0.054900    0.000009  
      5.287500  5.287500  7.050000    -0.112298    0.054900    0.000009  
      7.050000  7.050000  7.050000    -0.112298    0.054900    0.000009  
      8.812500  8.812500  7.050000    -0.112298    0.054900    0.000009  
      5.287500  3.525000  8.812500    -0.112298    0.054900    0.000009  
      7.050000  5.287500  8.812500    -0.112298    0.054900    0.000009  
      8.812500  7.050000  8.812500    -0.112298    0.054900    0.000009  
     10.575000  8.812500  8.812500    -0.112298    0.054900    0.000009  
      0.000000  5.287500  5.287500    -0.112298    0.054900    0.000009  
      1.762500  7.050000  5.287500    -0.112298    0.054900    0.000009  
      3.525000  8.812500  5.287500    -0.112298    0.054900    0.000009  
      5.287500 10.575000  5.287500    -0.112298    0.054900    0.000009  
      1.762500  5.287500  7.050000    -0.112298    0.054900    0.000009  
      3.525000  7.050000  7.050000    -0.112298    0.054900    0.000009  
      5.287500  8.812500  7.050000    -0.112298    0.054900    0.000009  
      7.050000 10.575000  7.050000    -0.112298    0.054900    0.000009  
      3.525000  5.287500  8.812500    -0.112298    0.054900    0.000009  
      5.287500  7.050000  8.812500    -0.112298    0.054900    0.000009  
      7.050000  8.812500  8.812500    -0.112298    0.054900    0.000009  
      8.812500 10.575000  8.812500    -0.112298    0.054900    0.000009  
      5.287500  5.287500 10.575000    -0.112298    0.054900    0.000009  
      7.050000  7.050000 10.575000    -0.112298    0.054900    0.000009  
      8.812500  8.812500 10.575000    -0.112298    0.054900    0.000009  
     10.575000 10.575000 10.575000    -0.112298    0.054900    0.000009  
 
 191 f  =    0.000002 THz     0.000010 2PiTHz    0.000056 cm-1     0.000007 meV
             X         Y         Z           dx          dy          dz
      0.000000  0.000000  0.000000    -0.001138   -0.002348    0.124973  
      1.762500  1.762500  0.000000    -0.001138   -0.002348    0.124973  
      3.525000  3.525000  0.000000    -0.001138   -0.002348    0.124973  
      5.287500  5.287500  0.000000    -0.001138   -0.002348    0.124973  
      1.762500  0.000000  1.762500    -0.001138   -0.002348    0.124973  
      3.525000  1.762500  1.762500    -0.001138   -0.002348    0.124973  
      5.287500  3.525000  1.762500    -0.001138   -0.002348    0.124973  
      7.050000  5.287500  1.762500    -0.001138   -0.002348    0.124973  
      3.525000  0.000000  3.525000    -0.001138   -0.002348    0.124973  
      5.287500  1.762500  3.525000    -0.001138   -0.002348    0.124973  
      7.050000  3.525000  3.525000    -0.001138   -0.002348    0.124973  
      8.812500  5.287500  3.525000    -0.001138   -0.002348    0.124973  
      5.287500  0.000000  5.287500    -0.001138   -0.002348    0.124973  
      7.050000  1.762500  5.287500    -0.001138   -0.002348    0.124973  
      8.812500  3.525000  5.287500    -0.001138   -0.002348    0.124973  
     10.575000  5.287500  5.287500    -0.001138   -0.002348    0.124973  
      0.000000  1.762500  1.762500    -0.001138   -0.002348    0.124973  
      1.762500  3.525000  1.762500    -0.001138   -0.002348    0.124973  
      3.525000  5.287500  1.762500    -0.001138   -0.002348    0.124973  
      5.287500  7.050000  1.762500    -0.001138   -0.002348    0.124973  
      1.762500  1.762500  3.525000    -0.001138   -0.002348    0.124973  
      3.525000  3.525000  3.525000    -0.001138   -0.002348    0.124973  
      5.287500  5.287500  3.525000    -0.001138   -0.002348    0.124973  
      7.050000  7.050000  3.525000    -0.001138   -0.002348    0.124973  
      3.525000  1.762500  5.287500    -0.001138   -0.002348    0.124973  
      5.287500  3.525000  5.287500    -0.001138   -0.002348    0.124973  
      7.050000  5.287500  5.287500    -0.001138   -0.002348    0.124973  
      8.812500  7.050000  5.287500    -0.001138   -0.002348    0.124973  
      5.287500  1.762500  7.050000    -0.001138   -0.002348    0.124973  
      7.050000  3.525000  7.050000    -0.001138   -0.002348    0.124973  
      8.812500  5.287500  7.050000    -0.001138   -0.002348    0.124973  
     10.575000  7.050000  7.050000    -0.001138   -0.002348    0.124973  
      0.000000  3.525000  3.525000    -0.001138   -0.002348    0.124973  
      1.762500  5.287500  3.525000    -0.001138   -0.002348    0.124973  
      3.525000  7.050000  3.525000    -0.001138   -0.002348    0.124973  
      5.287500  8.812500  3.525000    -0.001138   -0.002348    0.124973  
      1.762500  3.525000  5.287500    -0.001138   -0.002348    0.124973  
      3.525000  5.287500  5.287500    -0.001138   -0.002348    0.124973  
      5.287500  7.050000  5.287500    -0.001138   -0.002348    0.124973  
      7.050000  8.812500  5.287500    -0.001138   -0.002348    0.124973  
      3.525000  3.525000  7.050000    -0.001138   -0.002348    0.124973  
      5.287500  5.287500  7.050000    -0.001138   -0.002348    0.124973  
      7.050000  7.050000  7.050000    -0.001138   -0.002348    0.124973  
      8.812500  8.812500  7.050000    -0.001138   -0.002348    0.124973  
      5.287500  3.525000  8.812500    -0.001138   -0.002348    0.124973  
      7.050000  5.287500  8.812500    -0.001138   -0.002348    0.124973  
      8.812500  7.050000  8.812500    -0.001138   -0.002348    0.124973  
     10.575000  8.812500  8.812500    -0.001138   -0.002348    0.124973  
      0.000000  5.287500  5.287500    -0.001138   -0.002348    0.124973  
      1.762500  7.050000  5.287500    -0.001138   -0.002348    0.124973  
      3.525000  8.812500  5.287500    -0.001138   -0.002348    0.124973  
      5.287500 10.575000  5.287500    -0.001138   -0.002348    0.124973  
      1.762500  5.287500  7.050000    -0.001138   -0.002348    0.124973  
      3.525000  7.050000  7.050000    -0.001138   -0.002348    0.124973  
      5.287500  8.812500  7.050000    -0.001138   -0.002348    0.124973  
      7.050000 10.575000  7.050000    -0.001138   -0.002348    0.124973  
      3.525000  5.287500  8.812500    -0.001138   -0.002348    0.124973  
      5.287500  7.050000  8.812500    -0.001138   -0.002348    0.124973  
      7.050000  8.812500  8.812500    -0.001138   -0.002348    0.124973  
      8.812500 10.575000  8.812500    -0.001138   -0.002348    0.124973  
      5.287500  5.287500 10.575000    -0.001138   -0.002348    0.124973  
      7.050000  7.050000 10.575000    -0.001138   -0.002348    0.124973  
      8.812500  8.812500 10.575000    -0.001138   -0.002348    0.124973  
     10.575000 10.575000 10.575000    -0.001138   -0.002348    0.124973  
 
 192 f  =    0.000002 THz     0.000010 2PiTHz    0.000055 cm-1     0.000007 meV
             X         Y         Z           dx          dy          dz
      0.000000  0.000000  0.000000    -0.054889   -0.112274   -0.002610  
      1.762500  1.762500  0.000000    -0.054889   -0.112274   -0.002610  
      3.525000  3.525000  0.000000    -0.054889   -0.112274   -0.002610  
      5.287500  5.287500  0.000000    -0.054889   -0.112274   -0.002610  
      1.762500  0.000000  1.762500    -0.054889   -0.112274   -0.002610  
      3.525000  1.762500  1.762500    -0.054889   -0.112274   -0.002610  
      5.287500  3.525000  1.762500    -0.054889   -0.112274   -0.002610  
      7.050000  5.287500  1.762500    -0.054889   -0.112274   -0.002610  
      3.525000  0.000000  3.525000    -0.054889   -0.112274   -0.002610  
      5.287500  1.762500  3.525000    -0.054889   -0.112274   -0.002610  
      7.050000  3.525000  3.525000    -0.054889   -0.112274   -0.002610  
      8.812500  5.287500  3.525000    -0.054889   -0.112274   -0.002610  
      5.287500  0.000000  5.287500    -0.054889   -0.112274   -0.002610  
      7.050000  1.762500  5.287500    -0.054889   -0.112274   -0.002610  
      8.812500  3.525000  5.287500    -0.054889   -0.112274   -0.002610  
     10.575000  5.287500  5.287500    -0.054889   -0.112274   -0.002610  
      0.000000  1.762500  1.762500    -0.054889   -0.112274   -0.002610  
      1.762500  3.525000  1.762500    -0.054889   -0.112274   -0.002610  
      3.525000  5.287500  1.762500    -0.054889   -0.112274   -0.002610  
      5.287500  7.050000  1.762500    -0.054889   -0.112274   -0.002610  
      1.762500  1.762500  3.525000    -0.054889   -0.112274   -0.002610  
      3.525000  3.525000  3.525000    -0.054889   -0.112274   -0.002610  
      5.287500  5.287500  3.525000    -0.054889   -0.112274   -0.002610  
      7.050000  7.050000  3.525000    -0.054889   -0.112274   -0.002610  
      3.525000  1.762500  5.287500    -0.054889   -0.112274   -0.002610  
      5.287500  3.525000  5.287500    -0.054889   -0.112274   -0.002610  
      7.050000  5.287500  5.287500    -0.054889   -0.112274   -0.002610  
      8.812500  7.050000  5.287500    -0.054889   -0.112274   -0.002610  
      5.287500  1.762500  7.050000    -0.054889   -0.112274   -0.002610  
      7.050000  3.525000  7.050000    -0.054889   -0.112274   -0.002610  
      8.812500  5.287500  7.050000    -0.054889   -0.112274   -0.002610  
     10.575000  7.050000  7.050000    -0.054889   -0.112274   -0.002610  
      0.000000  3.525000  3.525000    -0.054889   -0.112274   -0.002610  
      1.762500  5.287500  3.525000    -0.054889   -0.112274   -0.002610  
      3.525000  7.050000  3.525000    -0.054889   -0.112274   -0.002610  
      5.287500  8.812500  3.525000    -0.054889   -0.112274   -0.002610  
      1.762500  3.525000  5.287500    -0.054889   -0.112274   -0.002610  
      3.525000  5.287500  5.287500    -0.054889   -0.112274   -0.002610  
      5.287500  7.050000  5.287500    -0.054889   -0.112274   -0.002610  
      7.050000  8.812500  5.287500    -0.054889   -0.112274   -0.002610  
      3.525000  3.525000  7.050000    -0.054889   -0.112274   -0.002610  
      5.287500  5.287500  7.050000    -0.054889   -0.112274   -0.002610  
      7.050000  7.050000  7.050000    -0.054889   -0.112274   -0.002610  
      8.812500  8.812500  7.050000    -0.054889   -0.112274   -0.002610  
      5.287500  3.525000  8.812500    -0.054889   -0.112274   -0.002610  
      7.050000  5.287500  8.812500    -0.054889   -0.112274   -0.002610  
      8.812500  7.050000  8.812500    -0.054889   -0.112274   -0.002610  
     10.575000  8.812500  8.812500    -0.054889   -0.112274   -0.002610  
      0.000000  5.287500  5.287500    -0.054889   -0.112274   -0.002610  
      1.762500  7.050000  5.287500    -0.054889   -0.112274   -0.002610  
      3.525000  8.812500  5.287500    -0.054889   -0.112274   -0.002610  
      5.287500 10.575000  5.287500    -0.054889   -0.112274   -0.002610  
      1.762500  5.287500  7.050000    -0.054889   -0.112274   -0.002610  
      3.525000  7.050000  7.050000    -0.054889   -0.112274   -0.002610  
      5.287500  8.812500  7.050000    -0.054889   -0.112274   -0.002610  
      7.050000 10.575000  7.050000    -0.054889   -0.112274   -0.002610  
      3.525000  5.287500  8.812500    -0.054889   -0.112274   -0.002610  
      5.287500  7.050000  8.812500    -0.054889   -0.112274   -0.002610  
      7.050000  8.812500  8.812500    -0.054889   -0.112274   -0.002610  
      8.812500 10.575000  8.812500    -0.054889   -0.112274   -0.002610  
      5.287500  5.287500 10.575000    -0.054889   -0.112274   -0.002610  
      7.050000  7.050000 10.575000    -0.054889   -0.112274   -0.002610  
      8.812500  8.812500 10.575000    -0.054889   -0.112274   -0.002610  
     10.575000 10.575000 10.575000    -0.054889   -0.112274   -0.002610  
 


--------------------------------------------------------------------------------------------------------



 ELASTIC MODULI IONIC CONTR (kBar)
 Direction    XX          YY          ZZ          XY          YZ          ZX
 --------------------------------------------------------------------------------
 XX           0.0000     -0.0000      0.0000      0.0000      0.0000     -0.0000
 YY           0.0000     -0.0000      0.0000      0.0000      0.0000     -0.0000
 ZZ           0.0000     -0.0000      0.0000      0.0000     -0.0000     -0.0000
 XY           0.0000      0.0000     -0.0000      0.0000      0.0000     -0.0000
 YZ           0.0000      0.0000     -0.0000      0.0000      0.0000      0.0000
 ZX           0.0000      0.0000      0.0000     -0.0000     -0.0000     -0.0000
 --------------------------------------------------------------------------------



--------------------------------------------------------------------------------------------------------


 writing wavefunctions
     LOOP+:  cpu time 7301.3170: real time 7296.3855
    4ORBIT:  cpu time    0.0000: real time    0.0000

 total amount of memory used by VASP on root node   284302. kBytes
========================================================================

   base      :      30000. kBytes
   nonl-proj :      25139. kBytes
   fftplans  :       8978. kBytes
   grid      :      43350. kBytes
   one-center:       1990. kBytes
   wavefun   :     174845. kBytes
 
  
  
 General timing and accounting informations for this job:
 ========================================================
  
                  Total CPU time used (sec):     7323.528
                            User time (sec):     7312.289
                          System time (sec):       11.238
                         Elapsed time (sec):     7318.793
  
                   Maximum memory used (kb):     1047428.
                   Average memory used (kb):           0.
  
                          Minor page faults:        99988
                          Major page faults:            2
                 Voluntary context switches:         1037
