<?xml version="1.0" encoding="ISO-8859-1"?>
<modeling>
 <generator>
  <i name="program" type="string">vasp </i>
  <i name="version" type="string">5.4.1  </i>
  <i name="subversion" type="string">05Feb16 (build Oct 12 2016 17:31:35) complex                          parallel </i>
  <i name="platform" type="string">IFC91_ompi </i>
  <i name="date" type="string">2020 09 08 </i>
  <i name="time" type="string">23:27:37 </i>
 </generator>
 <incar>
  <i type="string" name="SYSTEM"> phonon of Zr bcc - omiga</i>
  <i type="string" name="PREC">h</i>
  <i type="int" name="ISPIN">     2</i>
  <i type="int" name="IBRION">     8</i>
  <i name="EDIFF">      0.00000100</i>
  <i type="int" name="NSW">     1</i>
  <v name="MAGMOM">      1.00000000      1.00000000      1.00000000      1.00000000      1.00000000      1.00000000      1.00000000      1.00000000      1.00000000      1.00000000      1.00000000      1.00000000      1.00000000      1.00000000      1.00000000      1.00000000      1.00000000      1.00000000      1.00000000      1.00000000
      1.00000000      1.00000000      1.00000000      1.00000000      1.00000000      1.00000000      1.00000000      1.00000000      1.00000000      1.00000000      1.00000000      1.00000000      1.00000000      1.00000000      1.00000000      1.00000000      1.00000000      1.00000000      1.00000000      1.00000000
      1.00000000      1.00000000      1.00000000      1.00000000      1.00000000      1.00000000      1.00000000      1.00000000      1.00000000      1.00000000      1.00000000      1.00000000      1.00000000      1.00000000      1.00000000      1.00000000      1.00000000      1.00000000      1.00000000      1.00000000
      1.00000000      1.00000000      1.00000000      1.00000000</v>
  <i type="int" name="ISMEAR">     1</i>
  <i type="int" name="NWRITE">     0</i>
  <v type="int" name="KPOINT_BSE">    -1     0     0     0</v>
 </incar>
 <kpoints>
  <generation param="Gamma">
   <v type="int" name="divisions">       3        3        3 </v>
   <v name="usershift">      0.00000000       0.00000000       0.00000000 </v>
   <v name="genvec1">      0.33333333       0.00000000       0.00000000 </v>
   <v name="genvec2">      0.00000000       0.33333333       0.00000000 </v>
   <v name="genvec3">      0.00000000       0.00000000       0.33333333 </v>
   <v name="shift">      0.00000000       0.00000000       0.00000000 </v>
  </generation>
  <varray name="kpointlist" >
   <v>       0.00000000       0.00000000       0.00000000 </v>
   <v>       0.33333333       0.00000000       0.00000000 </v>
   <v>       0.33333333       0.33333333       0.00000000 </v>
   <v>      -0.33333333       0.33333333       0.00000000 </v>
  </varray>
  <varray name="weights" >
   <v>       0.03703704 </v>
   <v>       0.29629630 </v>
   <v>       0.22222222 </v>
   <v>       0.44444444 </v>
  </varray>
 </kpoints>
 <parameters>
  <separator name="general" >
   <i type="string" name="SYSTEM">phonon of Zr bcc - omiga</i>
   <i type="logical" name="LCOMPAT"> F  </i>
  </separator>
  <separator name="electronic" >
   <i type="string" name="PREC">h</i>
   <i name="ENMAX">    459.93125000</i>
   <i name="ENAUG">    703.44300000</i>
   <i name="EDIFF">      0.00000100</i>
   <i type="int" name="IALGO">    38</i>
   <i type="int" name="IWAVPR">    11</i>
   <i type="int" name="NBANDS">   648</i>
   <i name="NELECT">   1024.00000000</i>
   <i type="int" name="TURBO">     0</i>
   <i type="int" name="IRESTART">     0</i>
   <i type="int" name="NREBOOT">     0</i>
   <i type="int" name="NMIN">     0</i>
   <i name="EREF">      0.00000000</i>
   <separator name="electronic smearing" >
    <i type="int" name="ISMEAR">     1</i>
    <i name="SIGMA">      0.20000000</i>
    <i name="KSPACING">      0.50000000</i>
    <i type="logical" name="KGAMMA"> T  </i>
   </separator>
   <separator name="electronic projectors" >
    <i type="logical" name="LREAL"> F  </i>
    <v name="ROPT">      0.00000000</v>
    <i type="int" name="LMAXPAW">  -100</i>
    <i type="int" name="LMAXMIX">     2</i>
    <i type="logical" name="NLSPLINE"> F  </i>
   </separator>
   <separator name="electronic startup" >
    <i type="int" name="ISTART">     0</i>
    <i type="int" name="ICHARG">     2</i>
    <i type="int" name="INIWAV">     1</i>
   </separator>
   <separator name="electronic spin" >
    <i type="int" name="ISPIN">     2</i>
    <i type="logical" name="LNONCOLLINEAR"> F  </i>
    <v name="MAGMOM">      1.00000000      1.00000000      1.00000000      1.00000000      1.00000000      1.00000000      1.00000000      1.00000000      1.00000000      1.00000000      1.00000000      1.00000000      1.00000000      1.00000000      1.00000000      1.00000000      1.00000000      1.00000000      1.00000000      1.00000000
      1.00000000      1.00000000      1.00000000      1.00000000      1.00000000      1.00000000      1.00000000      1.00000000      1.00000000      1.00000000      1.00000000      1.00000000      1.00000000      1.00000000      1.00000000      1.00000000      1.00000000      1.00000000      1.00000000      1.00000000
      1.00000000      1.00000000      1.00000000      1.00000000      1.00000000      1.00000000      1.00000000      1.00000000      1.00000000      1.00000000      1.00000000      1.00000000      1.00000000      1.00000000      1.00000000      1.00000000      1.00000000      1.00000000      1.00000000      1.00000000
      1.00000000      1.00000000      1.00000000      1.00000000</v>
    <i name="NUPDOWN">     -1.00000000</i>
    <i type="logical" name="LSORBIT"> F  </i>
    <v name="SAXIS">      0.00000000      0.00000000      1.00000000</v>
    <i type="logical" name="LSPIRAL"> F  </i>
    <v name="QSPIRAL">      0.00000000      0.00000000      0.00000000</v>
    <i type="logical" name="LZEROZ"> F  </i>
   </separator>
   <separator name="electronic exchange-correlation" >
    <i type="logical" name="LASPH"> F  </i>
    <i type="logical" name="LMETAGGA"> F  </i>
   </separator>
   <separator name="electronic convergence" >
    <i type="int" name="NELM">    60</i>
    <i type="int" name="NELMDL">    -5</i>
    <i type="int" name="NELMIN">     2</i>
    <i name="ENINI">    459.93125000</i>
    <separator name="electronic convergence detail" >
     <i type="logical" name="LDIAG"> T  </i>
     <i type="logical" name="LSUBROT"> F  </i>
     <i name="WEIMIN">      0.00100000</i>
     <i name="EBREAK">      0.00000000</i>
     <i name="DEPER">      0.30000000</i>
     <i type="int" name="NRMM">     4</i>
     <i name="TIME">      0.40000000</i>
    </separator>
   </separator>
   <separator name="electronic mixer" >
    <i name="AMIX">      0.40000000</i>
    <i name="BMIX">      1.00000000</i>
    <i name="AMIN">      0.10000000</i>
    <i name="AMIX_MAG">      1.60000000</i>
    <i name="BMIX_MAG">      1.00000000</i>
    <separator name="electronic mixer details" >
     <i type="int" name="IMIX">     4</i>
     <i type="logical" name="MIXFIRST"> F  </i>
     <i type="int" name="MAXMIX">   -45</i>
     <i name="WC">    100.00000000</i>
     <i type="int" name="INIMIX">     1</i>
     <i type="int" name="MIXPRE">     1</i>
     <i type="int" name="MREMOVE">     5</i>
    </separator>
   </separator>
   <separator name="electronic dipolcorrection" >
    <i type="logical" name="LDIPOL"> F  </i>
    <i type="logical" name="LMONO"> F  </i>
    <i type="int" name="IDIPOL">     0</i>
    <i name="EPSILON">      1.00000000</i>
    <v name="DIPOL">   -100.00000000   -100.00000000   -100.00000000</v>
    <i name="EFIELD">      0.00000000</i>
   </separator>
  </separator>
  <separator name="grids" >
   <i type="int" name="NGX">    70</i>
   <i type="int" name="NGY">    70</i>
   <i type="int" name="NGZ">    70</i>
   <i type="int" name="NGXF">   120</i>
   <i type="int" name="NGYF">   120</i>
   <i type="int" name="NGZF">   120</i>
   <i type="logical" name="ADDGRID"> F  </i>
  </separator>
  <separator name="ionic" >
   <i type="int" name="NSW">     1</i>
   <i type="int" name="IBRION">     8</i>
   <i type="int" name="ISIF">     2</i>
   <i name="PSTRESS">      0.00000000</i>
   <i name="EDIFFG">      0.00001000</i>
   <i type="int" name="NFREE">     0</i>
   <i name="POTIM">      0.50000000</i>
   <i name="SMASS">     -3.00000000</i>
   <i name="SCALEE">      1.00000000</i>
  </separator>
  <separator name="ionic md" >
   <i name="TEBEG">      0.00010000</i>
   <i name="TEEND">      0.00010000</i>
   <i type="int" name="NBLOCK">     1</i>
   <i type="int" name="KBLOCK">     1</i>
   <i type="int" name="NPACO">   256</i>
   <i name="APACO">     16.00000000</i>
  </separator>
  <separator name="symmetry" >
   <i type="int" name="ISYM">     2</i>
   <i name="SYMPREC">      0.00001000</i>
  </separator>
  <separator name="dos" >
   <i type="logical" name="LORBIT"> F  </i>
   <v name="RWIGS">     -1.00000000</v>
   <i type="int" name="NEDOS">   301</i>
   <i name="EMIN">     10.00000000</i>
   <i name="EMAX">    -10.00000000</i>
   <i name="EFERMI">      0.00000000</i>
  </separator>
  <separator name="writing" >
   <i type="int" name="NWRITE">     0</i>
   <i type="logical" name="LWAVE"> T  </i>
   <i type="logical" name="LCHARG"> T  </i>
   <i type="logical" name="LPARD"> F  </i>
   <i type="logical" name="LVTOT"> F  </i>
   <i type="logical" name="LVHAR"> F  </i>
   <i type="logical" name="LELF"> F  </i>
   <i type="logical" name="LOPTICS"> F  </i>
   <v name="STM">      0.00000000      0.00000000      0.00000000      0.00000000      0.00000000      0.00000000      0.00000000</v>
  </separator>
  <separator name="performance" >
   <i type="int" name="NPAR">     8</i>
   <i type="int" name="NSIM">     4</i>
   <i type="int" name="NBLK">    -1</i>
   <i type="logical" name="LPLANE"> T  </i>
   <i type="logical" name="LSCALAPACK"> T  </i>
   <i type="logical" name="LSCAAWARE"> F  </i>
   <i type="logical" name="LSCALU"> F  </i>
   <i type="logical" name="LASYNC"> F  </i>
   <i type="logical" name="LORBITALREAL"> F  </i>
  </separator>
  <separator name="miscellaneous" >
   <i type="int" name="IDIOT">     3</i>
   <i type="logical" name="LMUSIC"> F  </i>
   <v name="POMASS">     58.69000000</v>
   <v name="DARWINR">      0.00000000</v>
   <v name="DARWINV">      1.00000000</v>
   <i type="logical" name="LCORR"> T  </i>
  </separator>
  <i type="logical" name="GGA_COMPAT"> T  </i>
  <i type="logical" name="LBERRY"> F  </i>
  <i type="int" name="ICORELEVEL">     0</i>
  <i type="logical" name="LDAU"> F  </i>
  <i type="int" name="I_CONSTRAINED_M">     0</i>
  <separator name="electronic exchange-correlation" >
   <i type="string" name="GGA">--</i>
   <i type="int" name="VOSKOWN">     0</i>
   <i type="logical" name="LHFCALC"> F  </i>
   <i type="string" name="PRECFOCK"></i>
   <i type="logical" name="LSYMGRAD"> F  </i>
   <i type="logical" name="LHFONE"> F  </i>
   <i type="logical" name="LRHFCALC"> F  </i>
   <i type="logical" name="LTHOMAS"> F  </i>
   <i type="logical" name="LMODELHF"> F  </i>
   <i name="ENCUT4O">     -1.00000000</i>
   <i type="int" name="EXXOEP">     0</i>
   <i type="int" name="FOURORBIT">     0</i>
   <i name="AEXX">      0.00000000</i>
   <i name="HFALPHA">      0.00000000</i>
   <i name="MCALPHA">      0.00000000</i>
   <i name="ALDAX">      1.00000000</i>
   <i name="AGGAX">      1.00000000</i>
   <i name="ALDAC">      1.00000000</i>
   <i name="AGGAC">      1.00000000</i>
   <i type="int" name="NKREDX">     1</i>
   <i type="int" name="NKREDY">     1</i>
   <i type="int" name="NKREDZ">     1</i>
   <i type="logical" name="SHIFTRED"> F  </i>
   <i type="logical" name="ODDONLY"> F  </i>
   <i type="logical" name="EVENONLY"> F  </i>
   <i type="int" name="LMAXFOCK">     0</i>
   <i type="int" name="NMAXFOCKAE">     0</i>
   <i type="logical" name="LFOCKAEDFT"> F  </i>
   <i name="HFSCREEN">      0.00000000</i>
   <i name="HFSCREENC">      0.00000000</i>
   <i type="int" name="NBANDSGWLOW">     0</i>
  </separator>
  <separator name="vdW DFT" >
   <i type="logical" name="LUSE_VDW"> F  </i>
   <i name="Zab_VDW">     -0.84910000</i>
   <i name="PARAM1">      0.12340000</i>
   <i name="PARAM2">      1.00000000</i>
   <i name="PARAM3">      0.00000000</i>
  </separator>
  <separator name="model GW" >
   <i type="int" name="MODEL_GW">     0</i>
   <i name="MODEL_EPS0">      6.57004922</i>
   <i name="MODEL_ALPHA">      1.00000000</i>
  </separator>
  <separator name="linear response parameters" >
   <i type="logical" name="LEPSILON"> F  </i>
   <i type="logical" name="LRPA"> F  </i>
   <i type="logical" name="LNABLA"> F  </i>
   <i type="logical" name="LVEL"> F  </i>
   <i type="int" name="KINTER">     0</i>
   <i name="CSHIFT">      0.10000000</i>
   <i name="OMEGAMAX">     -1.00000000</i>
   <i name="DEG_THRESHOLD">      0.00200000</i>
  </separator>
  <separator name="orbital magnetization" >
   <i type="logical" name="NUCIND"> F  </i>
   <v name="MAGPOS">      0.00000000      0.00000000      0.00000000</v>
   <i type="logical" name="LNICSALL"> T  </i>
   <i type="logical" name="ORBITALMAG"> F  </i>
   <i type="logical" name="LMAGBLOCH"> F  </i>
   <i type="logical" name="LCHIMAG"> F  </i>
   <i type="logical" name="LGAUGE"> T  </i>
   <i type="int" name="MAGATOM">     0</i>
   <v name="MAGDIPOL">      0.00000000      0.00000000      0.00000000</v>
   <v name="AVECCONST">      0.00000000      0.00000000      0.00000000</v>
  </separator>
  <separator name="response functions" >
   <i type="logical" name="LADDER"> F  </i>
   <i type="logical" name="LFXC"> F  </i>
   <i type="logical" name="LHARTREE"> T  </i>
   <i type="int" name="IBSE">     0</i>
   <v type="int" name="KPOINT">    -1     0     0     0</v>
   <i type="logical" name="LTCTE"> F  </i>
   <i type="logical" name="LTETE"> F  </i>
   <i type="logical" name="LTRIPLET"> F  </i>
   <i type="logical" name="LFXCEPS"> F  </i>
   <i type="logical" name="LFXHEG"> F  </i>
   <i type="int" name="NATURALO">     0</i>
   <i type="logical" name="L2ORDER"> F  </i>
   <i type="logical" name="LUSEW"> F  </i>
   <i name="ENCUTGW">     -2.00000000</i>
   <i name="ENCUTGWSOFT">     -2.00000000</i>
   <i name="ENCUTLF">     -1.00000000</i>
   <i type="int" name="LMAXMP2">    -1</i>
   <i name="SCISSOR">      0.00000000</i>
   <i type="int" name="NOMEGA">     0</i>
   <i type="int" name="NOMEGAR">     0</i>
   <i type="int" name="NBANDSGW">    -1</i>
   <i type="int" name="NBANDSO">    -1</i>
   <i type="int" name="NBANDSV">    -1</i>
   <i type="int" name="NELM">     1</i>
   <i type="int" name="NELMHF">     1</i>
   <i type="int" name="DIM">     3</i>
   <i type="int" name="ANTIRES">     0</i>
   <i name="OMEGAMAX">    -30.00000000</i>
   <i name="OMEGAMIN">    -30.00000000</i>
   <i name="OMEGATL">   -200.00000000</i>
   <i type="int" name="OMEGAGRID">     0</i>
   <i name="CSHIFT">     -0.10000000</i>
   <i type="logical" name="SELFENERGY"> F  </i>
   <i type="logical" name="LSPECTRAL"> F  </i>
   <i type="logical" name="LSPECTRALGW"> F  </i>
   <i type="logical" name="LSINGLES"> F  </i>
   <i type="logical" name="LFERMIGW"> F  </i>
   <i type="logical" name="ODDONLYGW"> F  </i>
   <i type="logical" name="EVENONLYGW"> F  </i>
   <i type="int" name="NKREDLFX">     1</i>
   <i type="int" name="NKREDLFY">     1</i>
   <i type="int" name="NKREDLFZ">     1</i>
   <i type="int" name="MAXMEM">  1800</i>
   <i type="int" name="TELESCOPE">     0</i>
   <i type="int" name="TAUPAR">     1</i>
   <i type="int" name="OMEGAPAR">    -1</i>
   <i name="LAMBDA">      1.00000000</i>
  </separator>
  <separator name="External order field" >
   <i name="OFIELD_KAPPA">      0.00000000</i>
   <v name="OFIELD_K">      0.00000000      0.00000000      0.00000000</v>
   <i name="OFIELD_Q6_NEAR">      0.00000000</i>
   <i name="OFIELD_Q6_FAR">      0.00000000</i>
   <i name="OFIELD_A">      0.00000000</i>
  </separator>
 </parameters>
 <atominfo>
  <atoms>      64 </atoms>
  <types>       1 </types>
  <array name="atoms" >
   <dimension dim="1">ion</dimension>
   <field type="string">element</field>
   <field type="int">atomtype</field>
   <set>
    <rc><c>Ni</c><c>   1</c></rc>
    <rc><c>Ni</c><c>   1</c></rc>
    <rc><c>Ni</c><c>   1</c></rc>
    <rc><c>Ni</c><c>   1</c></rc>
    <rc><c>Ni</c><c>   1</c></rc>
    <rc><c>Ni</c><c>   1</c></rc>
    <rc><c>Ni</c><c>   1</c></rc>
    <rc><c>Ni</c><c>   1</c></rc>
    <rc><c>Ni</c><c>   1</c></rc>
    <rc><c>Ni</c><c>   1</c></rc>
    <rc><c>Ni</c><c>   1</c></rc>
    <rc><c>Ni</c><c>   1</c></rc>
    <rc><c>Ni</c><c>   1</c></rc>
    <rc><c>Ni</c><c>   1</c></rc>
    <rc><c>Ni</c><c>   1</c></rc>
    <rc><c>Ni</c><c>   1</c></rc>
    <rc><c>Ni</c><c>   1</c></rc>
    <rc><c>Ni</c><c>   1</c></rc>
    <rc><c>Ni</c><c>   1</c></rc>
    <rc><c>Ni</c><c>   1</c></rc>
    <rc><c>Ni</c><c>   1</c></rc>
    <rc><c>Ni</c><c>   1</c></rc>
    <rc><c>Ni</c><c>   1</c></rc>
    <rc><c>Ni</c><c>   1</c></rc>
    <rc><c>Ni</c><c>   1</c></rc>
    <rc><c>Ni</c><c>   1</c></rc>
    <rc><c>Ni</c><c>   1</c></rc>
    <rc><c>Ni</c><c>   1</c></rc>
    <rc><c>Ni</c><c>   1</c></rc>
    <rc><c>Ni</c><c>   1</c></rc>
    <rc><c>Ni</c><c>   1</c></rc>
    <rc><c>Ni</c><c>   1</c></rc>
    <rc><c>Ni</c><c>   1</c></rc>
    <rc><c>Ni</c><c>   1</c></rc>
    <rc><c>Ni</c><c>   1</c></rc>
    <rc><c>Ni</c><c>   1</c></rc>
    <rc><c>Ni</c><c>   1</c></rc>
    <rc><c>Ni</c><c>   1</c></rc>
    <rc><c>Ni</c><c>   1</c></rc>
    <rc><c>Ni</c><c>   1</c></rc>
    <rc><c>Ni</c><c>   1</c></rc>
    <rc><c>Ni</c><c>   1</c></rc>
    <rc><c>Ni</c><c>   1</c></rc>
    <rc><c>Ni</c><c>   1</c></rc>
    <rc><c>Ni</c><c>   1</c></rc>
    <rc><c>Ni</c><c>   1</c></rc>
    <rc><c>Ni</c><c>   1</c></rc>
    <rc><c>Ni</c><c>   1</c></rc>
    <rc><c>Ni</c><c>   1</c></rc>
    <rc><c>Ni</c><c>   1</c></rc>
    <rc><c>Ni</c><c>   1</c></rc>
    <rc><c>Ni</c><c>   1</c></rc>
    <rc><c>Ni</c><c>   1</c></rc>
    <rc><c>Ni</c><c>   1</c></rc>
    <rc><c>Ni</c><c>   1</c></rc>
    <rc><c>Ni</c><c>   1</c></rc>
    <rc><c>Ni</c><c>   1</c></rc>
    <rc><c>Ni</c><c>   1</c></rc>
    <rc><c>Ni</c><c>   1</c></rc>
    <rc><c>Ni</c><c>   1</c></rc>
    <rc><c>Ni</c><c>   1</c></rc>
    <rc><c>Ni</c><c>   1</c></rc>
    <rc><c>Ni</c><c>   1</c></rc>
    <rc><c>Ni</c><c>   1</c></rc>
   </set>
  </array>
  <array name="atomtypes" >
   <dimension dim="1">type</dimension>
   <field type="int">atomspertype</field>
   <field type="string">element</field>
   <field>mass</field>
   <field>valence</field>
   <field type="string">pseudopotential</field>
   <set>
    <rc><c>  64</c><c>Ni</c><c>     58.69000000</c><c>     16.00000000</c><c> PAW_PBE Ni_pv 06Sep2000                </c></rc>
   </set>
  </array>
 </atominfo>
 <structure name="initialpos" >
  <crystal>
   <varray name="basis" >
    <v>       0.00000000       7.05000000       7.05000000 </v>
    <v>       7.05000000       0.00000000       7.05000000 </v>
    <v>       7.05000000       7.05000000       0.00000000 </v>
   </varray>
   <i name="volume">    700.80525000 </i>
   <varray name="rec_basis" >
    <v>      -0.07092199       0.07092199       0.07092199 </v>
    <v>       0.07092199      -0.07092199       0.07092199 </v>
    <v>       0.07092199       0.07092199      -0.07092199 </v>
   </varray>
  </crystal>
  <varray name="positions" >
   <v>       0.00000000       0.00000000       0.00000000 </v>
   <v>       0.00000000       0.00000000       0.25000000 </v>
   <v>       0.00000000       0.00000000       0.50000000 </v>
   <v>       0.00000000       0.00000000       0.75000000 </v>
   <v>       0.00000000       0.25000000       0.00000000 </v>
   <v>       0.00000000       0.25000000       0.25000000 </v>
   <v>       0.00000000       0.25000000       0.50000000 </v>
   <v>       0.00000000       0.25000000       0.75000000 </v>
   <v>       0.00000000       0.50000000       0.00000000 </v>
   <v>       0.00000000       0.50000000       0.25000000 </v>
   <v>       0.00000000       0.50000000       0.50000000 </v>
   <v>       0.00000000       0.50000000       0.75000000 </v>
   <v>       0.00000000       0.75000000       0.00000000 </v>
   <v>       0.00000000       0.75000000       0.25000000 </v>
   <v>       0.00000000       0.75000000       0.50000000 </v>
   <v>       0.00000000       0.75000000       0.75000000 </v>
   <v>       0.25000000       0.00000000       0.00000000 </v>
   <v>       0.25000000       0.00000000       0.25000000 </v>
   <v>       0.25000000       0.00000000       0.50000000 </v>
   <v>       0.25000000       0.00000000       0.75000000 </v>
   <v>       0.25000000       0.25000000       0.00000000 </v>
   <v>       0.25000000       0.25000000       0.25000000 </v>
   <v>       0.25000000       0.25000000       0.50000000 </v>
   <v>       0.25000000       0.25000000       0.75000000 </v>
   <v>       0.25000000       0.50000000       0.00000000 </v>
   <v>       0.25000000       0.50000000       0.25000000 </v>
   <v>       0.25000000       0.50000000       0.50000000 </v>
   <v>       0.25000000       0.50000000       0.75000000 </v>
   <v>       0.25000000       0.75000000       0.00000000 </v>
   <v>       0.25000000       0.75000000       0.25000000 </v>
   <v>       0.25000000       0.75000000       0.50000000 </v>
   <v>       0.25000000       0.75000000       0.75000000 </v>
   <v>       0.50000000       0.00000000       0.00000000 </v>
   <v>       0.50000000       0.00000000       0.25000000 </v>
   <v>       0.50000000       0.00000000       0.50000000 </v>
   <v>       0.50000000       0.00000000       0.75000000 </v>
   <v>       0.50000000       0.25000000       0.00000000 </v>
   <v>       0.50000000       0.25000000       0.25000000 </v>
   <v>       0.50000000       0.25000000       0.50000000 </v>
   <v>       0.50000000       0.25000000       0.75000000 </v>
   <v>       0.50000000       0.50000000       0.00000000 </v>
   <v>       0.50000000       0.50000000       0.25000000 </v>
   <v>       0.50000000       0.50000000       0.50000000 </v>
   <v>       0.50000000       0.50000000       0.75000000 </v>
   <v>       0.50000000       0.75000000       0.00000000 </v>
   <v>       0.50000000       0.75000000       0.25000000 </v>
   <v>       0.50000000       0.75000000       0.50000000 </v>
   <v>       0.50000000       0.75000000       0.75000000 </v>
   <v>       0.75000000       0.00000000       0.00000000 </v>
   <v>       0.75000000       0.00000000       0.25000000 </v>
   <v>       0.75000000       0.00000000       0.50000000 </v>
   <v>       0.75000000       0.00000000       0.75000000 </v>
   <v>       0.75000000       0.25000000       0.00000000 </v>
   <v>       0.75000000       0.25000000       0.25000000 </v>
   <v>       0.75000000       0.25000000       0.50000000 </v>
   <v>       0.75000000       0.25000000       0.75000000 </v>
   <v>       0.75000000       0.50000000       0.00000000 </v>
   <v>       0.75000000       0.50000000       0.25000000 </v>
   <v>       0.75000000       0.50000000       0.50000000 </v>
   <v>       0.75000000       0.50000000       0.75000000 </v>
   <v>       0.75000000       0.75000000       0.00000000 </v>
   <v>       0.75000000       0.75000000       0.25000000 </v>
   <v>       0.75000000       0.75000000       0.50000000 </v>
   <v>       0.75000000       0.75000000       0.75000000 </v>
  </varray>
 </structure>
 <calculation>
  <scstep>
   <time name="dav">  117.24  117.15</time>
   <time name="total">  117.58  117.49</time>
   <energy>
    <i name="alphaZ">   9846.09864404 </i>
    <i name="ewald">-153431.04596330 </i>
    <i name="hartreedc"> -61842.66455302 </i>
    <i name="XCdc">   5718.00510425 </i>
    <i name="pawpsdc"> 172361.15642774 </i>
    <i name="pawaedc">-181272.45834873 </i>
    <i name="eentropy">      0.01031429 </i>
    <i name="bandstr">    590.37862261 </i>
    <i name="atom"> 224016.65216645 </i>
    <i name="e_fr_energy">  15986.13241433 </i>
    <i name="e_wo_entrp">  15986.12210005 </i>
    <i name="e_0_energy">  15986.12897624 </i>
   </energy>
  </scstep>
  <scstep>
   <time name="dav">  108.07  107.99</time>
   <time name="total">  108.07  107.99</time>
   <energy>
    <i name="e_fr_energy">   1152.24825531 </i>
    <i name="e_wo_entrp">   1152.25830536 </i>
    <i name="e_0_energy">   1152.25160533 </i>
   </energy>
  </scstep>
  <scstep>
   <time name="dav">  109.06  108.98</time>
   <time name="total">  109.07  108.98</time>
   <energy>
    <i name="e_fr_energy">   -343.00226324 </i>
    <i name="e_wo_entrp">   -343.12548377 </i>
    <i name="e_0_energy">   -343.04333675 </i>
   </energy>
  </scstep>
  <scstep>
   <time name="dav">  113.81  113.72</time>
   <time name="total">  113.82  113.73</time>
   <energy>
    <i name="e_fr_energy">   -431.81932659 </i>
    <i name="e_wo_entrp">   -431.98328063 </i>
    <i name="e_0_energy">   -431.87397794 </i>
   </energy>
  </scstep>
  <scstep>
   <time name="dav">  113.52  113.43</time>
   <time name="total">  118.62  118.53</time>
   <energy>
    <i name="e_fr_energy">   -433.32712024 </i>
    <i name="e_wo_entrp">   -433.49125046 </i>
    <i name="e_0_energy">   -433.38183031 </i>
   </energy>
  </scstep>
  <scstep>
   <time name="dav">  112.00  111.91</time>
   <time name="total">  117.27  117.17</time>
   <energy>
    <i name="e_fr_energy">   -398.01699300 </i>
    <i name="e_wo_entrp">   -397.67937260 </i>
    <i name="e_0_energy">   -397.90445287 </i>
   </energy>
  </scstep>
  <scstep>
   <time name="dav">  111.80  111.71</time>
   <time name="total">  117.06  116.97</time>
   <energy>
    <i name="e_fr_energy">   -370.35412877 </i>
    <i name="e_wo_entrp">   -370.30237916 </i>
    <i name="e_0_energy">   -370.33687890 </i>
   </energy>
  </scstep>
  <scstep>
   <time name="dav">  114.08  113.99</time>
   <time name="total">  119.33  119.23</time>
   <energy>
    <i name="e_fr_energy">   -370.31231571 </i>
    <i name="e_wo_entrp">   -370.24396505 </i>
    <i name="e_0_energy">   -370.28953215 </i>
   </energy>
  </scstep>
  <scstep>
   <time name="dav">  119.24  119.15</time>
   <time name="total">  124.50  124.40</time>
   <energy>
    <i name="e_fr_energy">   -370.17208771 </i>
    <i name="e_wo_entrp">   -370.08536190 </i>
    <i name="e_0_energy">   -370.14317911 </i>
   </energy>
  </scstep>
  <scstep>
   <time name="dav">  117.91  117.81</time>
   <time name="total">  123.16  123.06</time>
   <energy>
    <i name="e_fr_energy">   -370.17692864 </i>
    <i name="e_wo_entrp">   -370.09112370 </i>
    <i name="e_0_energy">   -370.14832699 </i>
   </energy>
  </scstep>
  <scstep>
   <time name="dav">  113.50  113.41</time>
   <time name="total">  118.83  118.73</time>
   <energy>
    <i name="e_fr_energy">   -370.18026531 </i>
    <i name="e_wo_entrp">   -370.09605843 </i>
    <i name="e_0_energy">   -370.15219635 </i>
   </energy>
  </scstep>
  <scstep>
   <time name="dav">  111.35  111.26</time>
   <time name="total">  116.67  116.57</time>
   <energy>
    <i name="e_fr_energy">   -370.18029824 </i>
    <i name="e_wo_entrp">   -370.09460331 </i>
    <i name="e_0_energy">   -370.15173326 </i>
   </energy>
  </scstep>
  <scstep>
   <time name="dav">  108.56  108.47</time>
   <time name="total">  113.88  113.79</time>
   <energy>
    <i name="e_fr_energy">   -370.18030645 </i>
    <i name="e_wo_entrp">   -370.09416483 </i>
    <i name="e_0_energy">   -370.15159258 </i>
   </energy>
  </scstep>
  <scstep>
   <time name="dav">   99.07   99.00</time>
   <time name="total">  104.40  104.32</time>
   <energy>
    <i name="e_fr_energy">   -370.18028504 </i>
    <i name="e_wo_entrp">   -370.09406198 </i>
    <i name="e_0_energy">   -370.15154402 </i>
   </energy>
  </scstep>
  <scstep>
   <time name="dav">   69.93   69.87</time>
   <time name="total">   75.26   75.20</time>
   <energy>
    <i name="e_fr_energy">   -370.18027875 </i>
    <i name="e_wo_entrp">   -370.09411934 </i>
    <i name="e_0_energy">   -370.15155895 </i>
   </energy>
  </scstep>
  <scstep>
   <time name="dav">   69.61   69.55</time>
   <time name="total">   69.93   69.88</time>
   <energy>
    <i name="alphaZ">   9846.09864404 </i>
    <i name="ewald">-153431.04596330 </i>
    <i name="hartreedc"> -59477.35541567 </i>
    <i name="XCdc">   5628.11758825 </i>
    <i name="pawpsdc"> 171960.59701897 </i>
    <i name="pawaedc">-181025.20723434 </i>
    <i name="eentropy">     -0.08611992 </i>
    <i name="bandstr"> -17887.95096319 </i>
    <i name="atom"> 224016.65216645 </i>
    <i name="e_fr_energy">   -370.18027872 </i>
    <i name="e_wo_entrp">   -370.09415880 </i>
    <i name="e_0_energy">   -370.15157208 </i>
   </energy>
  </scstep>
  <structure>
   <crystal>
    <varray name="basis" >
     <v>       0.00000000       7.05000000       7.05000000 </v>
     <v>       7.05000000       0.00000000       7.05000000 </v>
     <v>       7.05000000       7.05000000       0.00000000 </v>
    </varray>
    <i name="volume">    700.80525000 </i>
    <varray name="rec_basis" >
     <v>      -0.07092199       0.07092199       0.07092199 </v>
     <v>       0.07092199      -0.07092199       0.07092199 </v>
     <v>       0.07092199       0.07092199      -0.07092199 </v>
    </varray>
   </crystal>
   <varray name="positions" >
    <v>       0.00000000       0.00000000       0.00000000 </v>
    <v>       0.00000000       0.00000000       0.25000000 </v>
    <v>       0.00000000       0.00000000       0.50000000 </v>
    <v>       0.00000000       0.00000000       0.75000000 </v>
    <v>       0.00000000       0.25000000       0.00000000 </v>
    <v>       0.00000000       0.25000000       0.25000000 </v>
    <v>       0.00000000       0.25000000       0.50000000 </v>
    <v>       0.00000000       0.25000000       0.75000000 </v>
    <v>       0.00000000       0.50000000       0.00000000 </v>
    <v>       0.00000000       0.50000000       0.25000000 </v>
    <v>       0.00000000       0.50000000       0.50000000 </v>
    <v>       0.00000000       0.50000000       0.75000000 </v>
    <v>       0.00000000       0.75000000       0.00000000 </v>
    <v>       0.00000000       0.75000000       0.25000000 </v>
    <v>       0.00000000       0.75000000       0.50000000 </v>
    <v>       0.00000000       0.75000000       0.75000000 </v>
    <v>       0.25000000       0.00000000       0.00000000 </v>
    <v>       0.25000000       0.00000000       0.25000000 </v>
    <v>       0.25000000       0.00000000       0.50000000 </v>
    <v>       0.25000000       0.00000000       0.75000000 </v>
    <v>       0.25000000       0.25000000       0.00000000 </v>
    <v>       0.25000000       0.25000000       0.25000000 </v>
    <v>       0.25000000       0.25000000       0.50000000 </v>
    <v>       0.25000000       0.25000000       0.75000000 </v>
    <v>       0.25000000       0.50000000       0.00000000 </v>
    <v>       0.25000000       0.50000000       0.25000000 </v>
    <v>       0.25000000       0.50000000       0.50000000 </v>
    <v>       0.25000000       0.50000000       0.75000000 </v>
    <v>       0.25000000       0.75000000       0.00000000 </v>
    <v>       0.25000000       0.75000000       0.25000000 </v>
    <v>       0.25000000       0.75000000       0.50000000 </v>
    <v>       0.25000000       0.75000000       0.75000000 </v>
    <v>       0.50000000       0.00000000       0.00000000 </v>
    <v>       0.50000000       0.00000000       0.25000000 </v>
    <v>       0.50000000       0.00000000       0.50000000 </v>
    <v>       0.50000000       0.00000000       0.75000000 </v>
    <v>       0.50000000       0.25000000       0.00000000 </v>
    <v>       0.50000000       0.25000000       0.25000000 </v>
    <v>       0.50000000       0.25000000       0.50000000 </v>
    <v>       0.50000000       0.25000000       0.75000000 </v>
    <v>       0.50000000       0.50000000       0.00000000 </v>
    <v>       0.50000000       0.50000000       0.25000000 </v>
    <v>       0.50000000       0.50000000       0.50000000 </v>
    <v>       0.50000000       0.50000000       0.75000000 </v>
    <v>       0.50000000       0.75000000       0.00000000 </v>
    <v>       0.50000000       0.75000000       0.25000000 </v>
    <v>       0.50000000       0.75000000       0.50000000 </v>
    <v>       0.50000000       0.75000000       0.75000000 </v>
    <v>       0.75000000       0.00000000       0.00000000 </v>
    <v>       0.75000000       0.00000000       0.25000000 </v>
    <v>       0.75000000       0.00000000       0.50000000 </v>
    <v>       0.75000000       0.00000000       0.75000000 </v>
    <v>       0.75000000       0.25000000       0.00000000 </v>
    <v>       0.75000000       0.25000000       0.25000000 </v>
    <v>       0.75000000       0.25000000       0.50000000 </v>
    <v>       0.75000000       0.25000000       0.75000000 </v>
    <v>       0.75000000       0.50000000       0.00000000 </v>
    <v>       0.75000000       0.50000000       0.25000000 </v>
    <v>       0.75000000       0.50000000       0.50000000 </v>
    <v>       0.75000000       0.50000000       0.75000000 </v>
    <v>       0.75000000       0.75000000       0.00000000 </v>
    <v>       0.75000000       0.75000000       0.25000000 </v>
    <v>       0.75000000       0.75000000       0.50000000 </v>
    <v>       0.75000000       0.75000000       0.75000000 </v>
   </varray>
  </structure>
  <varray name="forces" >
   <v>      -0.00000000       0.00000000       0.00000000 </v>
   <v>       0.00000000      -0.00000000       0.00000000 </v>
   <v>      -0.00000000       0.00000000      -0.00000000 </v>
   <v>      -0.00000000      -0.00000000      -0.00000000 </v>
   <v>       0.00000000      -0.00000000       0.00000000 </v>
   <v>      -0.00000000      -0.00000000       0.00000000 </v>
   <v>      -0.00000000      -0.00000000      -0.00000000 </v>
   <v>      -0.00000000      -0.00000000      -0.00000000 </v>
   <v>       0.00000000       0.00000000       0.00000000 </v>
   <v>      -0.00000000       0.00000000       0.00000000 </v>
   <v>      -0.00000000      -0.00000000      -0.00000000 </v>
   <v>       0.00000000      -0.00000000      -0.00000000 </v>
   <v>       0.00000000       0.00000000       0.00000000 </v>
   <v>       0.00000000       0.00000000       0.00000000 </v>
   <v>      -0.00000000      -0.00000000      -0.00000000 </v>
   <v>      -0.00000000      -0.00000000      -0.00000000 </v>
   <v>      -0.00000000      -0.00000000      -0.00000000 </v>
   <v>       0.00000000       0.00000000       0.00000000 </v>
   <v>      -0.00000000       0.00000000      -0.00000000 </v>
   <v>      -0.00000000      -0.00000000      -0.00000000 </v>
   <v>      -0.00000000      -0.00000000      -0.00000000 </v>
   <v>       0.00000000       0.00000000       0.00000000 </v>
   <v>      -0.00000000      -0.00000000      -0.00000000 </v>
   <v>       0.00000000      -0.00000000      -0.00000000 </v>
   <v>       0.00000000      -0.00000000       0.00000000 </v>
   <v>       0.00000000       0.00000000       0.00000000 </v>
   <v>      -0.00000000      -0.00000000      -0.00000000 </v>
   <v>      -0.00000000       0.00000000       0.00000000 </v>
   <v>      -0.00000000       0.00000000       0.00000000 </v>
   <v>       0.00000000       0.00000000       0.00000000 </v>
   <v>      -0.00000000       0.00000000      -0.00000000 </v>
   <v>       0.00000000      -0.00000000      -0.00000000 </v>
   <v>      -0.00000000       0.00000000       0.00000000 </v>
   <v>      -0.00000000      -0.00000000      -0.00000000 </v>
   <v>      -0.00000000       0.00000000      -0.00000000 </v>
   <v>      -0.00000000      -0.00000000      -0.00000000 </v>
   <v>       0.00000000      -0.00000000       0.00000000 </v>
   <v>      -0.00000000      -0.00000000       0.00000000 </v>
   <v>       0.00000000      -0.00000000      -0.00000000 </v>
   <v>      -0.00000000      -0.00000000      -0.00000000 </v>
   <v>       0.00000000       0.00000000       0.00000000 </v>
   <v>       0.00000000       0.00000000       0.00000000 </v>
   <v>      -0.00000000      -0.00000000      -0.00000000 </v>
   <v>      -0.00000000       0.00000000      -0.00000000 </v>
   <v>       0.00000000       0.00000000       0.00000000 </v>
   <v>       0.00000000       0.00000000       0.00000000 </v>
   <v>      -0.00000000      -0.00000000      -0.00000000 </v>
   <v>       0.00000000      -0.00000000      -0.00000000 </v>
   <v>       0.00000000       0.00000000       0.00000000 </v>
   <v>       0.00000000      -0.00000000       0.00000000 </v>
   <v>      -0.00000000       0.00000000      -0.00000000 </v>
   <v>      -0.00000000       0.00000000      -0.00000000 </v>
   <v>       0.00000000       0.00000000       0.00000000 </v>
   <v>      -0.00000000       0.00000000       0.00000000 </v>
   <v>      -0.00000000      -0.00000000      -0.00000000 </v>
   <v>       0.00000000       0.00000000      -0.00000000 </v>
   <v>       0.00000000      -0.00000000       0.00000000 </v>
   <v>       0.00000000       0.00000000       0.00000000 </v>
   <v>      -0.00000000       0.00000000      -0.00000000 </v>
   <v>      -0.00000000       0.00000000      -0.00000000 </v>
   <v>       0.00000000       0.00000000      -0.00000000 </v>
   <v>       0.00000000       0.00000000       0.00000000 </v>
   <v>      -0.00000000       0.00000000      -0.00000000 </v>
   <v>       0.00000000      -0.00000000      -0.00000000 </v>
  </varray>
  <varray name="stress" >
   <v>     -11.11602258      -0.00000000       0.00000000 </v>
   <v>      -0.00000000     -11.11602258      -0.00000000 </v>
   <v>       0.00000000       0.00000000     -11.11602258 </v>
  </varray>
  <energy>
   <i name="e_fr_energy">   -370.18027872 </i>
   <i name="e_wo_entrp">   -370.15157208 </i>
   <i name="e_0_energy">     -0.08611992 </i>
  </energy>
  <kpoints>
   <generation param="Gamma">
    <v type="int" name="divisions">       3        3        3 </v>
    <v name="usershift">      0.00000000       0.00000000       0.00000000 </v>
    <v name="genvec1">      0.33333333       0.00000000       0.00000000 </v>
    <v name="genvec2">      0.00000000       0.33333333       0.00000000 </v>
    <v name="genvec3">      0.00000000       0.00000000       0.33333333 </v>
    <v name="shift">      0.00000000       0.00000000       0.00000000 </v>
   </generation>
   <varray name="kpointlist" >
    <v>       0.00000000       0.00000000       0.00000000 </v>
    <v>       0.33333333       0.00000000       0.00000000 </v>
    <v>       0.33333333       0.33333333       0.00000000 </v>
    <v>      -0.33333333       0.33333333       0.00000000 </v>
    <v>       0.00000000       0.33333333       0.33333333 </v>
    <v>      -0.33333333       0.33333333       0.33333333 </v>
   </varray>
   <varray name="weights" >
    <v>       0.03703704 </v>
    <v>       0.29629630 </v>
    <v>       0.14814815 </v>
    <v>       0.29629630 </v>
    <v>       0.07407407 </v>
    <v>       0.14814815 </v>
   </varray>
  </kpoints>
  <scstep>
   <time name="total">  163.96  163.84</time>
   <energy>
    <i name="e_fr_energy">  -3374.14111236 </i>
    <i name="e_wo_entrp">  -3374.14111214 </i>
    <i name="e_0_energy">  -3374.14111229 </i>
   </energy>
  </scstep>
  <scstep>
   <time name="total">  215.56  215.39</time>
   <energy>
    <i name="e_fr_energy">  -4034.10694209 </i>
    <i name="e_wo_entrp">  -4034.10687091 </i>
    <i name="e_0_energy">  -4034.10691836 </i>
   </energy>
  </scstep>
  <scstep>
   <time name="total">  214.36  214.18</time>
   <energy>
    <i name="e_fr_energy">  -4030.88921153 </i>
    <i name="e_wo_entrp">  -4030.88917029 </i>
    <i name="e_0_energy">  -4030.88919778 </i>
   </energy>
  </scstep>
  <scstep>
   <time name="total">  174.77  174.63</time>
   <energy>
    <i name="e_fr_energy">  -4028.56445504 </i>
    <i name="e_wo_entrp">  -4028.56436128 </i>
    <i name="e_0_energy">  -4028.56442379 </i>
   </energy>
  </scstep>
  <scstep>
   <time name="total">  176.72  176.58</time>
   <energy>
    <i name="e_fr_energy">  -4034.61681378 </i>
    <i name="e_wo_entrp">  -4034.61677062 </i>
    <i name="e_0_energy">  -4034.61679939 </i>
   </energy>
  </scstep>
  <scstep>
   <time name="total">  171.78  171.65</time>
   <energy>
    <i name="e_fr_energy">  -4031.22250725 </i>
    <i name="e_wo_entrp">  -4031.22243903 </i>
    <i name="e_0_energy">  -4031.22248451 </i>
   </energy>
  </scstep>
  <scstep>
   <time name="total">  185.81  185.66</time>
   <energy>
    <i name="e_fr_energy">  -4032.56427865 </i>
    <i name="e_wo_entrp">  -4032.56421475 </i>
    <i name="e_0_energy">  -4032.56425735 </i>
   </energy>
  </scstep>
  <scstep>
   <time name="total">  175.58  175.44</time>
   <energy>
    <i name="e_fr_energy">  -4030.43039451 </i>
    <i name="e_wo_entrp">  -4030.43033154 </i>
    <i name="e_0_energy">  -4030.43037352 </i>
   </energy>
  </scstep>
  <scstep>
   <time name="total">  203.25  203.08</time>
   <energy>
    <i name="e_fr_energy">  -4030.61063366 </i>
    <i name="e_wo_entrp">  -4030.61056844 </i>
    <i name="e_0_energy">  -4030.61061192 </i>
   </energy>
  </scstep>
  <scstep>
   <time name="total">  216.60  216.43</time>
   <energy>
    <i name="e_fr_energy">  -4029.85110658 </i>
    <i name="e_wo_entrp">  -4029.85104118 </i>
    <i name="e_0_energy">  -4029.85108478 </i>
   </energy>
  </scstep>
  <scstep>
   <time name="total">  234.49  234.30</time>
   <energy>
    <i name="e_fr_energy">  -4030.38468506 </i>
    <i name="e_wo_entrp">  -4030.38461976 </i>
    <i name="e_0_energy">  -4030.38466329 </i>
   </energy>
  </scstep>
  <scstep>
   <time name="total">  224.71  224.53</time>
   <energy>
    <i name="e_fr_energy">  -4029.87140115 </i>
    <i name="e_wo_entrp">  -4029.87133605 </i>
    <i name="e_0_energy">  -4029.87137945 </i>
   </energy>
  </scstep>
  <scstep>
   <time name="total">  227.39  227.20</time>
   <energy>
    <i name="e_fr_energy">  -4030.02239884 </i>
    <i name="e_wo_entrp">  -4030.02233366 </i>
    <i name="e_0_energy">  -4030.02237711 </i>
   </energy>
  </scstep>
  <scstep>
   <time name="total">  249.40  249.20</time>
   <energy>
    <i name="e_fr_energy">  -4030.03866992 </i>
    <i name="e_wo_entrp">  -4030.03860483 </i>
    <i name="e_0_energy">  -4030.03864822 </i>
   </energy>
  </scstep>
  <scstep>
   <time name="total">  253.23  253.03</time>
   <energy>
    <i name="e_fr_energy">  -4029.98901447 </i>
    <i name="e_wo_entrp">  -4029.98894950 </i>
    <i name="e_0_energy">  -4029.98899282 </i>
   </energy>
  </scstep>
  <scstep>
   <time name="total">  268.94  268.73</time>
   <energy>
    <i name="e_fr_energy">  -4029.94165101 </i>
    <i name="e_wo_entrp">  -4029.94158605 </i>
    <i name="e_0_energy">  -4029.94162936 </i>
   </energy>
  </scstep>
  <scstep>
   <time name="total">  273.60  273.39</time>
   <energy>
    <i name="e_fr_energy">  -4029.97115372 </i>
    <i name="e_wo_entrp">  -4029.97108879 </i>
    <i name="e_0_energy">  -4029.97113207 </i>
   </energy>
  </scstep>
  <scstep>
   <time name="total">  286.03  285.80</time>
   <energy>
    <i name="e_fr_energy">  -4029.97042385 </i>
    <i name="e_wo_entrp">  -4029.97035891 </i>
    <i name="e_0_energy">  -4029.97040220 </i>
   </energy>
  </scstep>
  <kpoints>
   <generation param="Gamma">
    <v type="int" name="divisions">       3        3        3 </v>
    <v name="usershift">      0.00000000       0.00000000       0.00000000 </v>
    <v name="genvec1">      0.33333333       0.00000000       0.00000000 </v>
    <v name="genvec2">      0.00000000       0.33333333       0.00000000 </v>
    <v name="genvec3">      0.00000000       0.00000000       0.33333333 </v>
    <v name="shift">      0.00000000       0.00000000       0.00000000 </v>
   </generation>
   <varray name="kpointlist" >
    <v>       0.00000000       0.00000000       0.00000000 </v>
    <v>       0.33333333       0.00000000       0.00000000 </v>
    <v>       0.33333333       0.33333333       0.00000000 </v>
    <v>      -0.33333333       0.33333333       0.00000000 </v>
   </varray>
   <varray name="weights" >
    <v>       0.03703704 </v>
    <v>       0.29629630 </v>
    <v>       0.22222222 </v>
    <v>       0.44444444 </v>
   </varray>
  </kpoints>
  <dynmat>
   <varray name="hessian" >
    <v>      -0.15053922       0.00000000       0.00000000       0.01783382       0.02028556      -0.00000000       0.00009677       0.00011472      -0.00000000       0.01783382       0.02028556      -0.00000000       0.01783382       0.00000000       0.02028556       0.00111313       0.00084532       0.00084532       0.00014408       0.00084532      -0.00037548      -0.00065392       0.00000000      -0.00000000       0.00009677       0.00000000       0.00011472       0.00014408      -0.00037548       0.00084532      -0.00009504      -0.00000000       0.00000000       0.00014408      -0.00037548       0.00084532       0.01783382       0.00000000       0.02028556      -0.00065392       0.00000000       0.00000000       0.00014408       0.00084532      -0.00037548       0.00111313       0.00084532       0.00084532      -0.00065392      -0.00000000       0.00000000       0.00014408       0.00084532       0.00037548       0.00111313       0.00084532      -0.00084532       0.01783382      -0.00000000      -0.02028556       0.00014408       0.00037548       0.00084532       0.00022898      -0.00000000       0.00000000       0.00014408       0.00037548      -0.00084532      -0.00089736       0.00000000      -0.00000000       0.00111313      -0.00084532       0.00084532       0.00014408      -0.00084532       0.00037548      -0.00042726       0.00000000      -0.00000000       0.00003288       0.00000000      -0.00001905       0.01783382      -0.02028556       0.00000000      -0.00089736      -0.00000000       0.00000000       0.00003288      -0.00001905       0.00000000       0.00226899      -0.00000000      -0.00000000      -0.00009504       0.00000000       0.00000000       0.00014408      -0.00037548      -0.00084532       0.00009677      -0.00000000      -0.00011472       0.00014408      -0.00037548      -0.00084532       0.00014408      -0.00084532      -0.00037548       0.00111313      -0.00084532      -0.00084532       0.00003288      -0.00000000       0.00001905      -0.00042726      -0.00000000      -0.00000000       0.00009677      -0.00011472      -0.00000000       0.00003288       0.00001905      -0.00000000      -0.00088347       0.00000000      -0.00000000       0.00003288       0.00001905       0.00000000       0.00014408      -0.00084532      -0.00037548      -0.00042726       0.00000000      -0.00000000       0.00003288      -0.00000000       0.00001905       0.00111313      -0.00084532      -0.00084532      -0.00065392      -0.00000000       0.00000000       0.01783382       0.00000000      -0.02028556       0.00111313       0.00084532      -0.00084532       0.00014408       0.00084532       0.00037548       0.01783382      -0.02028556       0.00000000       0.00226899      -0.00000000      -0.00000000       0.00003288      -0.00001905      -0.00000000      -0.00089736      -0.00000000       0.00000000       0.00111313      -0.00084532       0.00084532       0.00003288      -0.00000000      -0.00001905      -0.00042726      -0.00000000      -0.00000000       0.00014408      -0.00084532       0.00037548       0.00014408       0.00037548       0.00084532      -0.00089736       0.00000000      -0.00000000       0.00014408       0.00037548      -0.00084532       0.00022898      -0.00000000       0.00000000 </v>
    <v>       0.00000000      -0.15053922       0.00000000       0.02028556       0.01783382       0.00000000       0.00011472       0.00009677      -0.00000000       0.02028556       0.01783382       0.00000000       0.00000000      -0.00065392      -0.00000000       0.00084532       0.00014408       0.00037548       0.00084532       0.00111313      -0.00084532       0.00000000       0.01783382      -0.02028556       0.00000000      -0.00009504       0.00000000      -0.00037548       0.00014408      -0.00084532      -0.00000000       0.00009677      -0.00011472      -0.00037548       0.00014408      -0.00084532       0.00000000      -0.00065392      -0.00000000       0.00000000       0.01783382      -0.02028556       0.00084532       0.00111313      -0.00084532       0.00084532       0.00014408       0.00037548      -0.00000000       0.01783382       0.02028556       0.00084532       0.00111313       0.00084532       0.00084532       0.00014408      -0.00037548       0.00000000      -0.00065392       0.00000000       0.00037548       0.00014408       0.00084532      -0.00000000       0.00022898       0.00000000       0.00037548       0.00014408      -0.00084532       0.00000000      -0.00089736      -0.00000000      -0.00084532       0.00014408      -0.00037548      -0.00084532       0.00111313      -0.00084532      -0.00000000       0.00003288       0.00001905      -0.00000000      -0.00042726      -0.00000000      -0.02028556       0.01783382       0.00000000      -0.00000000       0.00226899       0.00000000      -0.00001905       0.00003288      -0.00000000      -0.00000000      -0.00089736       0.00000000       0.00000000       0.00009677       0.00011472      -0.00037548       0.00014408       0.00084532      -0.00000000      -0.00009504       0.00000000      -0.00037548       0.00014408       0.00084532      -0.00084532       0.00111313       0.00084532      -0.00084532       0.00014408       0.00037548      -0.00000000      -0.00042726       0.00000000       0.00000000       0.00003288      -0.00001905      -0.00011472       0.00009677      -0.00000000       0.00001905       0.00003288      -0.00000000       0.00000000      -0.00088347      -0.00000000       0.00001905       0.00003288       0.00000000      -0.00084532       0.00111313       0.00084532      -0.00000000       0.00003288      -0.00001905      -0.00000000      -0.00042726      -0.00000000      -0.00084532       0.00014408       0.00037548      -0.00000000       0.01783382       0.02028556      -0.00000000      -0.00065392       0.00000000       0.00084532       0.00014408      -0.00037548       0.00084532       0.00111313       0.00084532      -0.02028556       0.01783382      -0.00000000      -0.00000000      -0.00089736       0.00000000      -0.00001905       0.00003288       0.00000000      -0.00000000       0.00226899       0.00000000      -0.00084532       0.00014408      -0.00037548       0.00000000      -0.00042726      -0.00000000       0.00000000       0.00003288       0.00001905      -0.00084532       0.00111313      -0.00084532       0.00037548       0.00014408       0.00084532       0.00000000      -0.00089736      -0.00000000       0.00037548       0.00014408      -0.00084532      -0.00000000       0.00022898       0.00000000 </v>
    <v>       0.00000000       0.00000000      -0.15053922      -0.00000000       0.00000000      -0.00065392      -0.00000000      -0.00000000      -0.00009504      -0.00000000       0.00000000      -0.00065392       0.02028556      -0.00000000       0.01783382       0.00084532       0.00037548       0.00014408      -0.00037548      -0.00084532       0.00014408       0.00000000      -0.02028556       0.01783382       0.00011472       0.00000000       0.00009677       0.00084532      -0.00084532       0.00111313       0.00000000      -0.00011472       0.00009677       0.00084532      -0.00084532       0.00111313       0.02028556      -0.00000000       0.01783382      -0.00000000      -0.02028556       0.01783382      -0.00037548      -0.00084532       0.00014408       0.00084532       0.00037548       0.00014408       0.00000000       0.02028556       0.01783382       0.00037548       0.00084532       0.00014408      -0.00084532      -0.00037548       0.00014408      -0.02028556       0.00000000       0.01783382       0.00084532       0.00084532       0.00111313       0.00000000       0.00000000       0.00022898      -0.00084532      -0.00084532       0.00111313      -0.00000000      -0.00000000       0.00226899       0.00084532      -0.00037548       0.00014408       0.00037548      -0.00084532       0.00014408      -0.00000000       0.00001905       0.00003288      -0.00001905      -0.00000000       0.00003288       0.00000000      -0.00000000      -0.00065392       0.00000000       0.00000000      -0.00089736      -0.00000000       0.00000000      -0.00042726      -0.00000000       0.00000000      -0.00089736       0.00000000       0.00011472       0.00009677      -0.00084532       0.00084532       0.00111313      -0.00011472       0.00000000       0.00009677      -0.00084532       0.00084532       0.00111313      -0.00037548       0.00084532       0.00014408      -0.00084532       0.00037548       0.00014408       0.00001905      -0.00000000       0.00003288      -0.00000000      -0.00001905       0.00003288      -0.00000000      -0.00000000      -0.00009504       0.00000000       0.00000000      -0.00042726      -0.00000000      -0.00000000      -0.00088347      -0.00000000      -0.00000000      -0.00042726      -0.00037548       0.00084532       0.00014408      -0.00000000      -0.00001905       0.00003288       0.00001905       0.00000000       0.00003288      -0.00084532       0.00037548       0.00014408       0.00000000       0.02028556       0.01783382      -0.02028556       0.00000000       0.01783382      -0.00084532      -0.00037548       0.00014408       0.00037548       0.00084532       0.00014408       0.00000000       0.00000000      -0.00065392      -0.00000000       0.00000000      -0.00089736       0.00000000      -0.00000000      -0.00042726       0.00000000       0.00000000      -0.00089736       0.00084532      -0.00037548       0.00014408      -0.00001905      -0.00000000       0.00003288      -0.00000000       0.00001905       0.00003288       0.00037548      -0.00084532       0.00014408       0.00084532       0.00084532       0.00111313      -0.00000000      -0.00000000       0.00226899      -0.00084532      -0.00084532       0.00111313       0.00000000       0.00000000       0.00022898 </v>
    <v>       0.01783382       0.02028556      -0.00000000      -0.15053922       0.00000000       0.00000000       0.01783382       0.02028556      -0.00000000       0.00009677       0.00011472      -0.00000000      -0.00065392       0.00000000      -0.00000000       0.01783382       0.00000000       0.02028556       0.00111313       0.00084532       0.00084532       0.00014408       0.00084532      -0.00037548       0.00014408      -0.00037548       0.00084532       0.00009677       0.00000000       0.00011472       0.00014408      -0.00037548       0.00084532      -0.00009504      -0.00000000       0.00000000       0.00111313       0.00084532       0.00084532       0.01783382       0.00000000       0.02028556      -0.00065392       0.00000000       0.00000000       0.00014408       0.00084532      -0.00037548       0.01783382      -0.00000000      -0.02028556      -0.00065392      -0.00000000       0.00000000       0.00014408       0.00084532       0.00037548       0.00111313       0.00084532      -0.00084532      -0.00089736       0.00000000      -0.00000000       0.00014408       0.00037548       0.00084532       0.00022898      -0.00000000       0.00000000       0.00014408       0.00037548      -0.00084532       0.00003288       0.00000000      -0.00001905       0.00111313      -0.00084532       0.00084532       0.00014408      -0.00084532       0.00037548      -0.00042726       0.00000000      -0.00000000       0.00226899      -0.00000000      -0.00000000       0.01783382      -0.02028556       0.00000000      -0.00089736      -0.00000000       0.00000000       0.00003288      -0.00001905       0.00000000       0.00014408      -0.00037548      -0.00084532      -0.00009504       0.00000000       0.00000000       0.00014408      -0.00037548      -0.00084532       0.00009677      -0.00000000      -0.00011472      -0.00042726      -0.00000000      -0.00000000       0.00014408      -0.00084532      -0.00037548       0.00111313      -0.00084532      -0.00084532       0.00003288      -0.00000000       0.00001905       0.00003288       0.00001905       0.00000000       0.00009677      -0.00011472      -0.00000000       0.00003288       0.00001905      -0.00000000      -0.00088347       0.00000000      -0.00000000       0.00111313      -0.00084532      -0.00084532       0.00014408      -0.00084532      -0.00037548      -0.00042726       0.00000000      -0.00000000       0.00003288      -0.00000000       0.00001905       0.00014408       0.00084532       0.00037548      -0.00065392      -0.00000000       0.00000000       0.01783382       0.00000000      -0.02028556       0.00111313       0.00084532      -0.00084532      -0.00089736      -0.00000000       0.00000000       0.01783382      -0.02028556       0.00000000       0.00226899      -0.00000000      -0.00000000       0.00003288      -0.00001905      -0.00000000       0.00014408      -0.00084532       0.00037548       0.00111313      -0.00084532       0.00084532       0.00003288      -0.00000000      -0.00001905      -0.00042726      -0.00000000      -0.00000000       0.00022898      -0.00000000       0.00000000       0.00014408       0.00037548       0.00084532      -0.00089736       0.00000000      -0.00000000       0.00014408       0.00037548      -0.00084532 </v>
    <v>       0.02028556       0.01783382       0.00000000       0.00000000      -0.15053922       0.00000000       0.02028556       0.01783382       0.00000000       0.00011472       0.00009677      -0.00000000       0.00000000       0.01783382      -0.02028556       0.00000000      -0.00065392      -0.00000000       0.00084532       0.00014408       0.00037548       0.00084532       0.00111313      -0.00084532      -0.00037548       0.00014408      -0.00084532       0.00000000      -0.00009504       0.00000000      -0.00037548       0.00014408      -0.00084532      -0.00000000       0.00009677      -0.00011472       0.00084532       0.00014408       0.00037548       0.00000000      -0.00065392      -0.00000000       0.00000000       0.01783382      -0.02028556       0.00084532       0.00111313      -0.00084532       0.00000000      -0.00065392       0.00000000      -0.00000000       0.01783382       0.02028556       0.00084532       0.00111313       0.00084532       0.00084532       0.00014408      -0.00037548       0.00000000      -0.00089736      -0.00000000       0.00037548       0.00014408       0.00084532      -0.00000000       0.00022898       0.00000000       0.00037548       0.00014408      -0.00084532      -0.00000000      -0.00042726      -0.00000000      -0.00084532       0.00014408      -0.00037548      -0.00084532       0.00111313      -0.00084532      -0.00000000       0.00003288       0.00001905      -0.00000000      -0.00089736       0.00000000      -0.02028556       0.01783382       0.00000000      -0.00000000       0.00226899       0.00000000      -0.00001905       0.00003288      -0.00000000      -0.00037548       0.00014408       0.00084532       0.00000000       0.00009677       0.00011472      -0.00037548       0.00014408       0.00084532      -0.00000000      -0.00009504       0.00000000       0.00000000       0.00003288      -0.00001905      -0.00084532       0.00111313       0.00084532      -0.00084532       0.00014408       0.00037548      -0.00000000      -0.00042726       0.00000000       0.00001905       0.00003288       0.00000000      -0.00011472       0.00009677      -0.00000000       0.00001905       0.00003288      -0.00000000       0.00000000      -0.00088347      -0.00000000      -0.00084532       0.00014408       0.00037548      -0.00084532       0.00111313       0.00084532      -0.00000000       0.00003288      -0.00001905      -0.00000000      -0.00042726      -0.00000000       0.00084532       0.00111313       0.00084532      -0.00000000       0.01783382       0.02028556      -0.00000000      -0.00065392       0.00000000       0.00084532       0.00014408      -0.00037548      -0.00000000       0.00226899       0.00000000      -0.02028556       0.01783382      -0.00000000      -0.00000000      -0.00089736       0.00000000      -0.00001905       0.00003288       0.00000000      -0.00084532       0.00111313      -0.00084532      -0.00084532       0.00014408      -0.00037548       0.00000000      -0.00042726      -0.00000000       0.00000000       0.00003288       0.00001905      -0.00000000       0.00022898       0.00000000       0.00037548       0.00014408       0.00084532       0.00000000      -0.00089736      -0.00000000       0.00037548       0.00014408      -0.00084532 </v>
    <v>      -0.00000000       0.00000000      -0.00065392       0.00000000       0.00000000      -0.15053922      -0.00000000       0.00000000      -0.00065392      -0.00000000      -0.00000000      -0.00009504       0.00000000      -0.02028556       0.01783382       0.02028556      -0.00000000       0.01783382       0.00084532       0.00037548       0.00014408      -0.00037548      -0.00084532       0.00014408       0.00084532      -0.00084532       0.00111313       0.00011472       0.00000000       0.00009677       0.00084532      -0.00084532       0.00111313       0.00000000      -0.00011472       0.00009677       0.00084532       0.00037548       0.00014408       0.02028556      -0.00000000       0.01783382      -0.00000000      -0.02028556       0.01783382      -0.00037548      -0.00084532       0.00014408      -0.02028556       0.00000000       0.01783382       0.00000000       0.02028556       0.01783382       0.00037548       0.00084532       0.00014408      -0.00084532      -0.00037548       0.00014408      -0.00000000      -0.00000000       0.00226899       0.00084532       0.00084532       0.00111313       0.00000000       0.00000000       0.00022898      -0.00084532      -0.00084532       0.00111313      -0.00001905      -0.00000000       0.00003288       0.00084532      -0.00037548       0.00014408       0.00037548      -0.00084532       0.00014408      -0.00000000       0.00001905       0.00003288      -0.00000000       0.00000000      -0.00089736       0.00000000      -0.00000000      -0.00065392       0.00000000       0.00000000      -0.00089736      -0.00000000       0.00000000      -0.00042726      -0.00084532       0.00084532       0.00111313       0.00000000       0.00011472       0.00009677      -0.00084532       0.00084532       0.00111313      -0.00011472       0.00000000       0.00009677      -0.00000000      -0.00001905       0.00003288      -0.00037548       0.00084532       0.00014408      -0.00084532       0.00037548       0.00014408       0.00001905      -0.00000000       0.00003288      -0.00000000      -0.00000000      -0.00042726      -0.00000000      -0.00000000      -0.00009504       0.00000000       0.00000000      -0.00042726      -0.00000000      -0.00000000      -0.00088347      -0.00084532       0.00037548       0.00014408      -0.00037548       0.00084532       0.00014408      -0.00000000      -0.00001905       0.00003288       0.00001905       0.00000000       0.00003288       0.00037548       0.00084532       0.00014408       0.00000000       0.02028556       0.01783382      -0.02028556       0.00000000       0.01783382      -0.00084532      -0.00037548       0.00014408       0.00000000       0.00000000      -0.00089736       0.00000000       0.00000000      -0.00065392      -0.00000000       0.00000000      -0.00089736       0.00000000      -0.00000000      -0.00042726       0.00037548      -0.00084532       0.00014408       0.00084532      -0.00037548       0.00014408      -0.00001905      -0.00000000       0.00003288      -0.00000000       0.00001905       0.00003288       0.00000000       0.00000000       0.00022898       0.00084532       0.00084532       0.00111313      -0.00000000      -0.00000000       0.00226899      -0.00084532      -0.00084532       0.00111313 </v>
    <v>       0.00009677       0.00011472      -0.00000000       0.01783382       0.02028556      -0.00000000      -0.15053922       0.00000000       0.00000000       0.01783382       0.02028556      -0.00000000       0.00014408       0.00084532      -0.00037548      -0.00065392       0.00000000      -0.00000000       0.01783382       0.00000000       0.02028556       0.00111313       0.00084532       0.00084532      -0.00009504      -0.00000000       0.00000000       0.00014408      -0.00037548       0.00084532       0.00009677       0.00000000       0.00011472       0.00014408      -0.00037548       0.00084532       0.00014408       0.00084532      -0.00037548       0.00111313       0.00084532       0.00084532       0.01783382       0.00000000       0.02028556      -0.00065392       0.00000000       0.00000000       0.00111313       0.00084532      -0.00084532       0.01783382      -0.00000000      -0.02028556      -0.00065392      -0.00000000       0.00000000       0.00014408       0.00084532       0.00037548       0.00014408       0.00037548      -0.00084532      -0.00089736       0.00000000      -0.00000000       0.00014408       0.00037548       0.00084532       0.00022898      -0.00000000       0.00000000      -0.00042726       0.00000000      -0.00000000       0.00003288       0.00000000      -0.00001905       0.00111313      -0.00084532       0.00084532       0.00014408      -0.00084532       0.00037548       0.00003288      -0.00001905       0.00000000       0.00226899      -0.00000000      -0.00000000       0.01783382      -0.02028556       0.00000000      -0.00089736      -0.00000000       0.00000000       0.00009677      -0.00000000      -0.00011472       0.00014408      -0.00037548      -0.00084532      -0.00009504       0.00000000       0.00000000       0.00014408      -0.00037548      -0.00084532       0.00003288      -0.00000000       0.00001905      -0.00042726      -0.00000000      -0.00000000       0.00014408      -0.00084532      -0.00037548       0.00111313      -0.00084532      -0.00084532      -0.00088347       0.00000000      -0.00000000       0.00003288       0.00001905       0.00000000       0.00009677      -0.00011472      -0.00000000       0.00003288       0.00001905      -0.00000000       0.00003288      -0.00000000       0.00001905       0.00111313      -0.00084532      -0.00084532       0.00014408      -0.00084532      -0.00037548      -0.00042726       0.00000000      -0.00000000       0.00111313       0.00084532      -0.00084532       0.00014408       0.00084532       0.00037548      -0.00065392      -0.00000000       0.00000000       0.01783382       0.00000000      -0.02028556       0.00003288      -0.00001905      -0.00000000      -0.00089736      -0.00000000       0.00000000       0.01783382      -0.02028556       0.00000000       0.00226899      -0.00000000      -0.00000000      -0.00042726      -0.00000000      -0.00000000       0.00014408      -0.00084532       0.00037548       0.00111313      -0.00084532       0.00084532       0.00003288      -0.00000000      -0.00001905       0.00014408       0.00037548      -0.00084532       0.00022898      -0.00000000       0.00000000       0.00014408       0.00037548       0.00084532      -0.00089736       0.00000000      -0.00000000 </v>
    <v>       0.00011472       0.00009677      -0.00000000       0.02028556       0.01783382       0.00000000       0.00000000      -0.15053922       0.00000000       0.02028556       0.01783382       0.00000000       0.00084532       0.00111313      -0.00084532       0.00000000       0.01783382      -0.02028556       0.00000000      -0.00065392      -0.00000000       0.00084532       0.00014408       0.00037548      -0.00000000       0.00009677      -0.00011472      -0.00037548       0.00014408      -0.00084532       0.00000000      -0.00009504       0.00000000      -0.00037548       0.00014408      -0.00084532       0.00084532       0.00111313      -0.00084532       0.00084532       0.00014408       0.00037548       0.00000000      -0.00065392      -0.00000000       0.00000000       0.01783382      -0.02028556       0.00084532       0.00014408      -0.00037548       0.00000000      -0.00065392       0.00000000      -0.00000000       0.01783382       0.02028556       0.00084532       0.00111313       0.00084532       0.00037548       0.00014408      -0.00084532       0.00000000      -0.00089736      -0.00000000       0.00037548       0.00014408       0.00084532      -0.00000000       0.00022898       0.00000000      -0.00000000       0.00003288       0.00001905      -0.00000000      -0.00042726      -0.00000000      -0.00084532       0.00014408      -0.00037548      -0.00084532       0.00111313      -0.00084532      -0.00001905       0.00003288      -0.00000000      -0.00000000      -0.00089736       0.00000000      -0.02028556       0.01783382       0.00000000      -0.00000000       0.00226899       0.00000000      -0.00000000      -0.00009504       0.00000000      -0.00037548       0.00014408       0.00084532       0.00000000       0.00009677       0.00011472      -0.00037548       0.00014408       0.00084532      -0.00000000      -0.00042726       0.00000000       0.00000000       0.00003288      -0.00001905      -0.00084532       0.00111313       0.00084532      -0.00084532       0.00014408       0.00037548       0.00000000      -0.00088347      -0.00000000       0.00001905       0.00003288       0.00000000      -0.00011472       0.00009677      -0.00000000       0.00001905       0.00003288      -0.00000000      -0.00000000      -0.00042726      -0.00000000      -0.00084532       0.00014408       0.00037548      -0.00084532       0.00111313       0.00084532      -0.00000000       0.00003288      -0.00001905       0.00084532       0.00014408      -0.00037548       0.00084532       0.00111313       0.00084532      -0.00000000       0.01783382       0.02028556      -0.00000000      -0.00065392       0.00000000      -0.00001905       0.00003288       0.00000000      -0.00000000       0.00226899       0.00000000      -0.02028556       0.01783382      -0.00000000      -0.00000000      -0.00089736       0.00000000       0.00000000       0.00003288       0.00001905      -0.00084532       0.00111313      -0.00084532      -0.00084532       0.00014408      -0.00037548       0.00000000      -0.00042726      -0.00000000       0.00037548       0.00014408      -0.00084532      -0.00000000       0.00022898       0.00000000       0.00037548       0.00014408       0.00084532       0.00000000      -0.00089736      -0.00000000 </v>
    <v>      -0.00000000      -0.00000000      -0.00009504      -0.00000000       0.00000000      -0.00065392       0.00000000       0.00000000      -0.15053922      -0.00000000       0.00000000      -0.00065392      -0.00037548      -0.00084532       0.00014408       0.00000000      -0.02028556       0.01783382       0.02028556      -0.00000000       0.01783382       0.00084532       0.00037548       0.00014408       0.00000000      -0.00011472       0.00009677       0.00084532      -0.00084532       0.00111313       0.00011472       0.00000000       0.00009677       0.00084532      -0.00084532       0.00111313      -0.00037548      -0.00084532       0.00014408       0.00084532       0.00037548       0.00014408       0.02028556      -0.00000000       0.01783382      -0.00000000      -0.02028556       0.01783382      -0.00084532      -0.00037548       0.00014408      -0.02028556       0.00000000       0.01783382       0.00000000       0.02028556       0.01783382       0.00037548       0.00084532       0.00014408      -0.00084532      -0.00084532       0.00111313      -0.00000000      -0.00000000       0.00226899       0.00084532       0.00084532       0.00111313       0.00000000       0.00000000       0.00022898      -0.00000000       0.00001905       0.00003288      -0.00001905      -0.00000000       0.00003288       0.00084532      -0.00037548       0.00014408       0.00037548      -0.00084532       0.00014408      -0.00000000       0.00000000      -0.00042726      -0.00000000       0.00000000      -0.00089736       0.00000000      -0.00000000      -0.00065392       0.00000000       0.00000000      -0.00089736      -0.00011472       0.00000000       0.00009677      -0.00084532       0.00084532       0.00111313       0.00000000       0.00011472       0.00009677      -0.00084532       0.00084532       0.00111313       0.00001905      -0.00000000       0.00003288      -0.00000000      -0.00001905       0.00003288      -0.00037548       0.00084532       0.00014408      -0.00084532       0.00037548       0.00014408      -0.00000000      -0.00000000      -0.00088347      -0.00000000      -0.00000000      -0.00042726      -0.00000000      -0.00000000      -0.00009504       0.00000000       0.00000000      -0.00042726       0.00001905       0.00000000       0.00003288      -0.00084532       0.00037548       0.00014408      -0.00037548       0.00084532       0.00014408      -0.00000000      -0.00001905       0.00003288      -0.00084532      -0.00037548       0.00014408       0.00037548       0.00084532       0.00014408       0.00000000       0.02028556       0.01783382      -0.02028556       0.00000000       0.01783382       0.00000000      -0.00000000      -0.00042726       0.00000000       0.00000000      -0.00089736       0.00000000       0.00000000      -0.00065392      -0.00000000       0.00000000      -0.00089736      -0.00000000       0.00001905       0.00003288       0.00037548      -0.00084532       0.00014408       0.00084532      -0.00037548       0.00014408      -0.00001905      -0.00000000       0.00003288      -0.00084532      -0.00084532       0.00111313       0.00000000       0.00000000       0.00022898       0.00084532       0.00084532       0.00111313      -0.00000000      -0.00000000       0.00226899 </v>
    <v>       0.01783382       0.02028556      -0.00000000       0.00009677       0.00011472      -0.00000000       0.01783382       0.02028556      -0.00000000      -0.15053922       0.00000000       0.00000000       0.00111313       0.00084532       0.00084532       0.00014408       0.00084532      -0.00037548      -0.00065392       0.00000000      -0.00000000       0.01783382       0.00000000       0.02028556       0.00014408      -0.00037548       0.00084532      -0.00009504      -0.00000000       0.00000000       0.00014408      -0.00037548       0.00084532       0.00009677       0.00000000       0.00011472      -0.00065392       0.00000000       0.00000000       0.00014408       0.00084532      -0.00037548       0.00111313       0.00084532       0.00084532       0.01783382       0.00000000       0.02028556       0.00014408       0.00084532       0.00037548       0.00111313       0.00084532      -0.00084532       0.01783382      -0.00000000      -0.02028556      -0.00065392      -0.00000000       0.00000000       0.00022898      -0.00000000       0.00000000       0.00014408       0.00037548      -0.00084532      -0.00089736       0.00000000      -0.00000000       0.00014408       0.00037548       0.00084532       0.00014408      -0.00084532       0.00037548      -0.00042726       0.00000000      -0.00000000       0.00003288       0.00000000      -0.00001905       0.00111313      -0.00084532       0.00084532      -0.00089736      -0.00000000       0.00000000       0.00003288      -0.00001905       0.00000000       0.00226899      -0.00000000      -0.00000000       0.01783382      -0.02028556       0.00000000       0.00014408      -0.00037548      -0.00084532       0.00009677      -0.00000000      -0.00011472       0.00014408      -0.00037548      -0.00084532      -0.00009504       0.00000000       0.00000000       0.00111313      -0.00084532      -0.00084532       0.00003288      -0.00000000       0.00001905      -0.00042726      -0.00000000      -0.00000000       0.00014408      -0.00084532      -0.00037548       0.00003288       0.00001905      -0.00000000      -0.00088347       0.00000000      -0.00000000       0.00003288       0.00001905       0.00000000       0.00009677      -0.00011472      -0.00000000      -0.00042726       0.00000000      -0.00000000       0.00003288      -0.00000000       0.00001905       0.00111313      -0.00084532      -0.00084532       0.00014408      -0.00084532      -0.00037548       0.01783382       0.00000000      -0.02028556       0.00111313       0.00084532      -0.00084532       0.00014408       0.00084532       0.00037548      -0.00065392      -0.00000000       0.00000000       0.00226899      -0.00000000      -0.00000000       0.00003288      -0.00001905      -0.00000000      -0.00089736      -0.00000000       0.00000000       0.01783382      -0.02028556       0.00000000       0.00003288      -0.00000000      -0.00001905      -0.00042726      -0.00000000      -0.00000000       0.00014408      -0.00084532       0.00037548       0.00111313      -0.00084532       0.00084532      -0.00089736       0.00000000      -0.00000000       0.00014408       0.00037548      -0.00084532       0.00022898      -0.00000000       0.00000000       0.00014408       0.00037548       0.00084532 </v>
[...]
       <r>    23.0874     0.0000   648.0000 </r>
       <r>    23.3725     0.0000   648.0000 </r>
       <r>    23.6576     0.0000   648.0000 </r>
       <r>    23.9427     0.0000   648.0000 </r>
       <r>    24.2279     0.0000   648.0000 </r>
       <r>    24.5130     0.0000   648.0000 </r>
       <r>    24.7981     0.0000   648.0000 </r>
       <r>    25.0832     0.0000   648.0000 </r>
       <r>    25.3683     0.0000   648.0000 </r>
      </set>
      <set comment="spin 2">
       <r>   -60.1668     0.0000     0.0000 </r>
       <r>   -59.8817     0.0000     0.0000 </r>
       <r>   -59.5966     0.0000     0.0000 </r>
       <r>   -59.3115     0.0000     0.0000 </r>
       <r>   -59.0263     0.0000     0.0000 </r>
       <r>   -58.7412     0.0000     0.0000 </r>
       <r>   -58.4561     0.0000     0.0000 </r>
       <r>   -58.1710     0.0000     0.0000 </r>
       <r>   -57.8859     0.0000     0.0000 </r>
       <r>   -57.6008     0.0000     0.0000 </r>
       <r>   -57.3156     0.0000     0.0000 </r>
       <r>   -57.0305    -0.0000    -0.0000 </r>
       <r>   -56.7454    -0.0000    -0.0000 </r>
       <r>   -56.4603    -0.0000    -0.0000 </r>
       <r>   -56.1752    -0.0000    -0.0000 </r>
       <r>   -55.8901    -0.1211    -0.0345 </r>
       <r>   -55.6049   -13.4575    -3.8715 </r>
       <r>   -55.3198   236.4136    63.5341 </r>
       <r>   -55.0347   465.5260   196.2635 </r>
       <r>   -54.7496   -14.1441   192.2308 </r>
       <r>   -54.4645    -0.8093   192.0001 </r>
       <r>   -54.1793    -0.0002   192.0000 </r>
       <r>   -53.8942    -0.0000   192.0000 </r>
       <r>   -53.6091     0.0000   192.0000 </r>
       <r>   -53.3240     0.0000   192.0000 </r>
       <r>   -53.0389     0.0000   192.0000 </r>
       <r>   -52.7538     0.0000   192.0000 </r>
       <r>   -52.4686     0.0000   192.0000 </r>
       <r>   -52.1835     0.0000   192.0000 </r>
       <r>   -51.8984     0.0000   192.0000 </r>
       <r>   -51.6133     0.0000   192.0000 </r>
       <r>   -51.3282     0.0000   192.0000 </r>
       <r>   -51.0431     0.0000   192.0000 </r>
       <r>   -50.7579     0.0000   192.0000 </r>
       <r>   -50.4728     0.0000   192.0000 </r>
       <r>   -50.1877     0.0000   192.0000 </r>
       <r>   -49.9026     0.0000   192.0000 </r>
       <r>   -49.6175     0.0000   192.0000 </r>
       <r>   -49.3324     0.0000   192.0000 </r>
       <r>   -49.0472     0.0000   192.0000 </r>
       <r>   -48.7621     0.0000   192.0000 </r>
       <r>   -48.4770     0.0000   192.0000 </r>
       <r>   -48.1919     0.0000   192.0000 </r>
       <r>   -47.9068     0.0000   192.0000 </r>
       <r>   -47.6217     0.0000   192.0000 </r>
       <r>   -47.3365     0.0000   192.0000 </r>
       <r>   -47.0514     0.0000   192.0000 </r>
       <r>   -46.7663     0.0000   192.0000 </r>
       <r>   -46.4812     0.0000   192.0000 </r>
       <r>   -46.1961     0.0000   192.0000 </r>
       <r>   -45.9110     0.0000   192.0000 </r>
       <r>   -45.6258     0.0000   192.0000 </r>
       <r>   -45.3407     0.0000   192.0000 </r>
       <r>   -45.0556     0.0000   192.0000 </r>
       <r>   -44.7705     0.0000   192.0000 </r>
       <r>   -44.4854     0.0000   192.0000 </r>
       <r>   -44.2002     0.0000   192.0000 </r>
       <r>   -43.9151     0.0000   192.0000 </r>
       <r>   -43.6300     0.0000   192.0000 </r>
       <r>   -43.3449     0.0000   192.0000 </r>
       <r>   -43.0598     0.0000   192.0000 </r>
       <r>   -42.7747     0.0000   192.0000 </r>
       <r>   -42.4895     0.0000   192.0000 </r>
       <r>   -42.2044     0.0000   192.0000 </r>
       <r>   -41.9193     0.0000   192.0000 </r>
       <r>   -41.6342     0.0000   192.0000 </r>
       <r>   -41.3491     0.0000   192.0000 </r>
       <r>   -41.0640     0.0000   192.0000 </r>
       <r>   -40.7788     0.0000   192.0000 </r>
       <r>   -40.4937     0.0000   192.0000 </r>
       <r>   -40.2086     0.0000   192.0000 </r>
       <r>   -39.9235     0.0000   192.0000 </r>
       <r>   -39.6384     0.0000   192.0000 </r>
       <r>   -39.3533     0.0000   192.0000 </r>
       <r>   -39.0681     0.0000   192.0000 </r>
       <r>   -38.7830     0.0000   192.0000 </r>
       <r>   -38.4979     0.0000   192.0000 </r>
       <r>   -38.2128     0.0000   192.0000 </r>
       <r>   -37.9277     0.0000   192.0000 </r>
       <r>   -37.6426     0.0000   192.0000 </r>
       <r>   -37.3574     0.0000   192.0000 </r>
       <r>   -37.0723     0.0000   192.0000 </r>
       <r>   -36.7872     0.0000   192.0000 </r>
       <r>   -36.5021     0.0000   192.0000 </r>
       <r>   -36.2170     0.0000   192.0000 </r>
       <r>   -35.9319     0.0000   192.0000 </r>
       <r>   -35.6467     0.0000   192.0000 </r>
       <r>   -35.3616     0.0000   192.0000 </r>
       <r>   -35.0765     0.0000   192.0000 </r>
       <r>   -34.7914     0.0000   192.0000 </r>
       <r>   -34.5063     0.0000   192.0000 </r>
       <r>   -34.2211     0.0000   192.0000 </r>
       <r>   -33.9360     0.0000   192.0000 </r>
       <r>   -33.6509     0.0000   192.0000 </r>
       <r>   -33.3658     0.0000   192.0000 </r>
       <r>   -33.0807     0.0000   192.0000 </r>
       <r>   -32.7956     0.0000   192.0000 </r>
       <r>   -32.5104     0.0000   192.0000 </r>
       <r>   -32.2253     0.0000   192.0000 </r>
       <r>   -31.9402     0.0000   192.0000 </r>
       <r>   -31.6551     0.0000   192.0000 </r>
       <r>   -31.3700     0.0000   192.0000 </r>
       <r>   -31.0849     0.0000   192.0000 </r>
       <r>   -30.7997     0.0000   192.0000 </r>
       <r>   -30.5146     0.0000   192.0000 </r>
       <r>   -30.2295     0.0000   192.0000 </r>
       <r>   -29.9444     0.0000   192.0000 </r>
       <r>   -29.6593     0.0000   192.0000 </r>
       <r>   -29.3742     0.0000   192.0000 </r>
       <r>   -29.0890     0.0000   192.0000 </r>
       <r>   -28.8039     0.0000   192.0000 </r>
       <r>   -28.5188     0.0000   192.0000 </r>
       <r>   -28.2337     0.0000   192.0000 </r>
       <r>   -27.9486     0.0000   192.0000 </r>
       <r>   -27.6635     0.0000   192.0000 </r>
       <r>   -27.3783     0.0000   192.0000 </r>
       <r>   -27.0932     0.0000   192.0000 </r>
       <r>   -26.8081     0.0000   192.0000 </r>
       <r>   -26.5230     0.0000   192.0000 </r>
       <r>   -26.2379     0.0000   192.0000 </r>
       <r>   -25.9528     0.0000   192.0000 </r>
       <r>   -25.6676     0.0000   192.0000 </r>
       <r>   -25.3825     0.0000   192.0000 </r>
       <r>   -25.0974     0.0000   192.0000 </r>
       <r>   -24.8123     0.0000   192.0000 </r>
       <r>   -24.5272     0.0000   192.0000 </r>
       <r>   -24.2420     0.0000   192.0000 </r>
       <r>   -23.9569     0.0000   192.0000 </r>
       <r>   -23.6718     0.0000   192.0000 </r>
       <r>   -23.3867     0.0000   192.0000 </r>
       <r>   -23.1016     0.0000   192.0000 </r>
       <r>   -22.8165     0.0000   192.0000 </r>
       <r>   -22.5313     0.0000   192.0000 </r>
       <r>   -22.2462     0.0000   192.0000 </r>
       <r>   -21.9611     0.0000   192.0000 </r>
       <r>   -21.6760     0.0000   192.0000 </r>
       <r>   -21.3909     0.0000   192.0000 </r>
       <r>   -21.1058     0.0000   192.0000 </r>
       <r>   -20.8206     0.0000   192.0000 </r>
       <r>   -20.5355     0.0000   192.0000 </r>
       <r>   -20.2504     0.0000   192.0000 </r>
       <r>   -19.9653     0.0000   192.0000 </r>
       <r>   -19.6802     0.0000   192.0000 </r>
       <r>   -19.3951     0.0000   192.0000 </r>
       <r>   -19.1099     0.0000   192.0000 </r>
       <r>   -18.8248     0.0000   192.0000 </r>
       <r>   -18.5397     0.0000   192.0000 </r>
       <r>   -18.2546     0.0000   192.0000 </r>
       <r>   -17.9695     0.0000   192.0000 </r>
       <r>   -17.6844     0.0000   192.0000 </r>
       <r>   -17.3992     0.0000   192.0000 </r>
       <r>   -17.1141     0.0000   192.0000 </r>
       <r>   -16.8290     0.0000   192.0000 </r>
       <r>   -16.5439     0.0000   192.0000 </r>
       <r>   -16.2588     0.0000   192.0000 </r>
       <r>   -15.9737     0.0000   192.0000 </r>
       <r>   -15.6885     0.0000   192.0000 </r>
       <r>   -15.4034     0.0000   192.0000 </r>
       <r>   -15.1183     0.0000   192.0000 </r>
       <r>   -14.8332     0.0000   192.0000 </r>
       <r>   -14.5481     0.0000   192.0000 </r>
       <r>   -14.2629     0.0000   192.0000 </r>
       <r>   -13.9778     0.0000   192.0000 </r>
       <r>   -13.6927     0.0000   192.0000 </r>
       <r>   -13.4076     0.0000   192.0000 </r>
       <r>   -13.1225     0.0000   192.0000 </r>
       <r>   -12.8374     0.0000   192.0000 </r>
       <r>   -12.5522     0.0000   192.0000 </r>
       <r>   -12.2671     0.0000   192.0000 </r>
       <r>   -11.9820     0.0000   192.0000 </r>
       <r>   -11.6969     0.0000   192.0000 </r>
       <r>   -11.4118     0.0000   192.0000 </r>
       <r>   -11.1267     0.0000   192.0000 </r>
       <r>   -10.8415     0.0000   192.0000 </r>
       <r>   -10.5564     0.0000   192.0000 </r>
       <r>   -10.2713     0.0000   192.0000 </r>
       <r>    -9.9862     0.0000   192.0000 </r>
       <r>    -9.7011     0.0000   192.0000 </r>
       <r>    -9.4160     0.0000   192.0000 </r>
       <r>    -9.1308     0.0000   192.0000 </r>
       <r>    -8.8457     0.0000   192.0000 </r>
       <r>    -8.5606     0.0000   192.0000 </r>
       <r>    -8.2755     0.0000   192.0000 </r>
       <r>    -7.9904     0.0000   192.0000 </r>
       <r>    -7.7053     0.0000   192.0000 </r>
       <r>    -7.4201     0.0000   192.0000 </r>
       <r>    -7.1350     0.0000   192.0000 </r>
       <r>    -6.8499     0.0000   192.0000 </r>
       <r>    -6.5648     0.0000   192.0000 </r>
       <r>    -6.2797     0.0000   192.0000 </r>
       <r>    -5.9946     0.0000   192.0000 </r>
       <r>    -5.7094     0.0000   192.0000 </r>
       <r>    -5.4243     0.0000   192.0000 </r>
       <r>    -5.1392     0.0000   192.0000 </r>
       <r>    -4.8541     0.0000   192.0000 </r>
       <r>    -4.5690     0.0000   192.0000 </r>
       <r>    -4.2838     0.0000   192.0000 </r>
       <r>    -3.9987     0.0000   192.0000 </r>
       <r>    -3.7136     0.0000   192.0000 </r>
       <r>    -3.4285     0.0000   192.0000 </r>
       <r>    -3.1434    -0.0000   192.0000 </r>
       <r>    -2.8583    -0.0000   192.0000 </r>
       <r>    -2.5731    -0.0000   192.0000 </r>
       <r>    -2.2880    -0.0000   192.0000 </r>
       <r>    -2.0029    -0.0000   192.0000 </r>
       <r>    -1.7178    -0.0004   191.9999 </r>
       <r>    -1.4327    -0.0044   191.9986 </r>
       <r>    -1.1476     0.1127   192.0308 </r>
       <r>    -0.8624     1.4833   192.4537 </r>
       <r>    -0.5773     0.8782   192.7041 </r>
       <r>    -0.2922     2.8145   193.5065 </r>
       <r>    -0.0071     2.4969   194.2184 </r>
       <r>     0.2780     1.0008   194.5038 </r>
       <r>     0.5631     5.4468   196.0568 </r>
       <r>     0.8483     3.0097   196.9149 </r>
       <r>     1.1334     4.4120   198.1728 </r>
       <r>     1.4185     0.9966   198.4569 </r>
       <r>     1.7036     8.9188   200.9998 </r>
       <r>     1.9887     4.6282   202.3194 </r>
       <r>     2.2738     6.4774   204.1662 </r>
       <r>     2.5590     3.0853   205.0459 </r>
       <r>     2.8441    10.9970   208.1814 </r>
       <r>     3.1292    13.3730   211.9942 </r>
       <r>     3.4143    11.6436   215.3140 </r>
       <r>     3.6994    23.9857   222.1528 </r>
       <r>     3.9845    39.4243   233.3933 </r>
       <r>     4.2697    25.2601   240.5954 </r>
       <r>     4.5548    54.2177   256.0538 </r>
       <r>     4.8399    55.7151   271.9391 </r>
       <r>     5.1250    49.9866   286.1911 </r>
       <r>     5.4101    53.7095   301.5047 </r>
       <r>     5.6953    70.0972   321.4906 </r>
       <r>     5.9804    80.4008   344.4142 </r>
       <r>     6.2655    91.9258   370.6238 </r>
       <r>     6.5506    82.7416   394.2149 </r>
       <r>     6.8357    65.1140   412.7800 </r>
       <r>     7.1208    86.3747   437.4069 </r>
       <r>     7.4060    66.2730   456.3024 </r>
       <r>     7.6911    82.7805   479.9046 </r>
       <r>     7.9762   103.1623   509.3179 </r>
       <r>     8.2613    67.2902   528.5035 </r>
       <r>     8.5464    22.9458   535.0457 </r>
       <r>     8.8315    10.8298   538.1335 </r>
       <r>     9.1167     3.9121   539.2489 </r>
       <r>     9.4018    13.6587   543.1432 </r>
       <r>     9.6869    11.9442   546.5487 </r>
       <r>     9.9720    12.3621   550.0734 </r>
       <r>    10.2571     4.7245   551.4204 </r>
       <r>    10.5422     8.8010   553.9297 </r>
       <r>    10.8274    10.0128   556.7845 </r>
       <r>    11.1125     7.0816   558.8036 </r>
       <r>    11.3976    11.7169   562.1443 </r>
       <r>    11.6827     2.4771   562.8506 </r>
       <r>    11.9678    11.8471   566.2284 </r>
       <r>    12.2529     5.6232   567.8317 </r>
       <r>    12.5381    -0.4948   567.6906 </r>
       <r>    12.8232     5.7570   569.3320 </r>
       <r>    13.1083     8.8568   571.8573 </r>
       <r>    13.3934     3.7539   572.9276 </r>
       <r>    13.6785     1.4539   573.3421 </r>
       <r>    13.9636    10.6653   576.3830 </r>
       <r>    14.2488     7.5304   578.5300 </r>
       <r>    14.5339    10.2278   581.4461 </r>
       <r>    14.8190     7.4196   583.5616 </r>
       <r>    15.1041     8.0141   585.8465 </r>
       <r>    15.3892     9.7499   588.6264 </r>
       <r>    15.6744    10.3398   591.5744 </r>
       <r>    15.9595     6.7919   593.5109 </r>
       <r>    16.2446    11.9044   596.9051 </r>
       <r>    16.5297     8.1919   599.2407 </r>
       <r>    16.8148     3.9722   600.3733 </r>
       <r>    17.0999     7.0866   602.3938 </r>
       <r>    17.3851     9.8551   605.2037 </r>
       <r>    17.6702     5.9751   606.9073 </r>
       <r>    17.9553    11.5101   610.1890 </r>
       <r>    18.2404     7.4090   612.3014 </r>
       <r>    18.5255    13.0695   616.0277 </r>
       <r>    18.8106    18.2021   621.2175 </r>
       <r>    19.0958    10.8251   624.3039 </r>
       <r>    19.3809     9.7316   627.0786 </r>
       <r>    19.6660    13.0164   630.7898 </r>
       <r>    19.9511    13.4505   634.6247 </r>
       <r>    20.2362     2.5557   635.3534 </r>
       <r>    20.5213    15.3725   639.7364 </r>
       <r>    20.8065    11.2810   642.9528 </r>
       <r>    21.0916    10.3130   645.8932 </r>
       <r>    21.3767     3.9044   647.0064 </r>
       <r>    21.6618     3.6510   648.0473 </r>
       <r>    21.9469    -0.1619   648.0012 </r>
       <r>    22.2320    -0.0041   648.0000 </r>
       <r>    22.5172    -0.0000   648.0000 </r>
       <r>    22.8023    -0.0000   648.0000 </r>
       <r>    23.0874     0.0000   648.0000 </r>
       <r>    23.3725     0.0000   648.0000 </r>
       <r>    23.6576     0.0000   648.0000 </r>
       <r>    23.9427     0.0000   648.0000 </r>
       <r>    24.2279     0.0000   648.0000 </r>
       <r>    24.5130     0.0000   648.0000 </r>
       <r>    24.7981     0.0000   648.0000 </r>
       <r>    25.0832     0.0000   648.0000 </r>
       <r>    25.3683     0.0000   648.0000 </r>
      </set>
     </set>
    </array>
   </total>
  </dos>
 </calculation>
 <structure name="finalpos" >
  <crystal>
   <varray name="basis" >
    <v>       0.00000000       7.05000000       7.05000000 </v>
    <v>       7.05000000       0.00000000       7.05000000 </v>
    <v>       7.05000000       7.05000000       0.00000000 </v>
   </varray>
   <i name="volume">    700.80525000 </i>
   <varray name="rec_basis" >
    <v>      -0.07092199       0.07092199       0.07092199 </v>
    <v>       0.07092199      -0.07092199       0.07092199 </v>
    <v>       0.07092199       0.07092199      -0.07092199 </v>
   </varray>
  </crystal>
  <varray name="positions" >
   <v>       0.00000000       0.00000000       0.00000000 </v>
   <v>       0.00000000       0.00000000       0.25000000 </v>
   <v>       0.00000000       0.00000000       0.50000000 </v>
   <v>       0.00000000       0.00000000       0.75000000 </v>
   <v>       0.00000000       0.25000000       0.00000000 </v>
   <v>       0.00000000       0.25000000       0.25000000 </v>
   <v>       0.00000000       0.25000000       0.50000000 </v>
   <v>       0.00000000       0.25000000       0.75000000 </v>
   <v>       0.00000000       0.50000000       0.00000000 </v>
   <v>       0.00000000       0.50000000       0.25000000 </v>
   <v>       0.00000000       0.50000000       0.50000000 </v>
   <v>       0.00000000       0.50000000       0.75000000 </v>
   <v>       0.00000000       0.75000000       0.00000000 </v>
   <v>       0.00000000       0.75000000       0.25000000 </v>
   <v>       0.00000000       0.75000000       0.50000000 </v>
   <v>       0.00000000       0.75000000       0.75000000 </v>
   <v>       0.25000000       0.00000000       0.00000000 </v>
   <v>       0.25000000       0.00000000       0.25000000 </v>
   <v>       0.25000000       0.00000000       0.50000000 </v>
   <v>       0.25000000       0.00000000       0.75000000 </v>
   <v>       0.25000000       0.25000000       0.00000000 </v>
   <v>       0.25000000       0.25000000       0.25000000 </v>
   <v>       0.25000000       0.25000000       0.50000000 </v>
   <v>       0.25000000       0.25000000       0.75000000 </v>
   <v>       0.25000000       0.50000000       0.00000000 </v>
   <v>       0.25000000       0.50000000       0.25000000 </v>
   <v>       0.25000000       0.50000000       0.50000000 </v>
   <v>       0.25000000       0.50000000       0.75000000 </v>
   <v>       0.25000000       0.75000000       0.00000000 </v>
   <v>       0.25000000       0.75000000       0.25000000 </v>
   <v>       0.25000000       0.75000000       0.50000000 </v>
   <v>       0.25000000       0.75000000       0.75000000 </v>
   <v>       0.50000000       0.00000000       0.00000000 </v>
   <v>       0.50000000       0.00000000       0.25000000 </v>
   <v>       0.50000000       0.00000000       0.50000000 </v>
   <v>       0.50000000       0.00000000       0.75000000 </v>
   <v>       0.50000000       0.25000000       0.00000000 </v>
   <v>       0.50000000       0.25000000       0.25000000 </v>
   <v>       0.50000000       0.25000000       0.50000000 </v>
   <v>       0.50000000       0.25000000       0.75000000 </v>
   <v>       0.50000000       0.50000000       0.00000000 </v>
   <v>       0.50000000       0.50000000       0.25000000 </v>
   <v>       0.50000000       0.50000000       0.50000000 </v>
   <v>       0.50000000       0.50000000       0.75000000 </v>
   <v>       0.50000000       0.75000000       0.00000000 </v>
   <v>       0.50000000       0.75000000       0.25000000 </v>
   <v>       0.50000000       0.75000000       0.50000000 </v>
   <v>       0.50000000       0.75000000       0.75000000 </v>
   <v>       0.75000000       0.00000000       0.00000000 </v>
   <v>       0.75000000       0.00000000       0.25000000 </v>
   <v>       0.75000000       0.00000000       0.50000000 </v>
   <v>       0.75000000       0.00000000       0.75000000 </v>
   <v>       0.75000000       0.25000000       0.00000000 </v>
   <v>       0.75000000       0.25000000       0.25000000 </v>
   <v>       0.75000000       0.25000000       0.50000000 </v>
   <v>       0.75000000       0.25000000       0.75000000 </v>
   <v>       0.75000000       0.50000000       0.00000000 </v>
   <v>       0.75000000       0.50000000       0.25000000 </v>
   <v>       0.75000000       0.50000000       0.50000000 </v>
   <v>       0.75000000       0.50000000       0.75000000 </v>
   <v>       0.75000000       0.75000000       0.00000000 </v>
   <v>       0.75000000       0.75000000       0.25000000 </v>
   <v>       0.75000000       0.75000000       0.50000000 </v>
   <v>       0.75000000       0.75000000       0.75000000 </v>
  </varray>
 </structure>
</modeling>
