       N       E                     dE             d eps       ncg     rms          rms(c)
DAV:   1     0.140889645648E+05    0.14089E+05   -0.53535E+05 29960   0.193E+03
DAV:   2     0.857042684468E+03   -0.13232E+05   -0.12798E+05 25920   0.648E+02
DAV:   3    -0.368002453688E+03   -0.12250E+04   -0.10169E+04 26592   0.205E+02
DAV:   4    -0.429355900392E+03   -0.61353E+02   -0.59999E+02 27824   0.472E+01
DAV:   5    -0.430241463982E+03   -0.88556E+00   -0.88502E+00 27512   0.527E+00    0.676E+01
DAV:   6    -0.391533593932E+03    0.38708E+02   -0.55987E+02 27304   0.687E+01    0.451E+01
DAV:   7    -0.367576259615E+03    0.23957E+02   -0.99871E+01 27192   0.293E+01    0.592E+00
DAV:   8    -0.367553752981E+03    0.22507E-01   -0.85996E-01 27592   0.194E+00    0.267E+00
DAV:   9    -0.367479157023E+03    0.74596E-01   -0.17931E-01 28024   0.771E-01    0.916E-01
DAV:  10    -0.367481525630E+03   -0.23686E-02   -0.99317E-03 29376   0.178E-01    0.313E-01
DAV:  11    -0.367484535435E+03   -0.30098E-02   -0.41196E-03 27840   0.137E-01    0.100E-01
DAV:  12    -0.367484615779E+03   -0.80344E-04   -0.45536E-04 27848   0.439E-02    0.242E-02
DAV:  13    -0.367484628852E+03   -0.13073E-04   -0.21791E-05 23080   0.885E-03    0.163E-02
DAV:  14    -0.367484603402E+03    0.25450E-04   -0.67662E-06 22040   0.669E-03    0.477E-03
DAV:  15    -0.367484597070E+03    0.63325E-05   -0.47155E-07 13808   0.165E-03    0.810E-04
DAV:  16    -0.367484597519E+03   -0.44951E-06   -0.99452E-08 13600   0.976E-04
   1 F= -.36748460E+03 E0= -.36745526E+03  d E =-.880203E-01  mag=    40.2396
 Found     1 degrees of freedom:
       N       E                     dE             d eps       ncg     rms          rms(c)
DAV:   1    -0.367412309439E+03    0.72288E-01   -0.24595E+00 62184   0.150E+01    0.432E-01
DAV:   2    -0.367484056124E+03   -0.71747E-01   -0.70284E-01 48288   0.156E+00    0.945E-01
DAV:   3    -0.367484998970E+03   -0.94285E-03   -0.23954E-02 56032   0.820E-01    0.779E-01
DAV:   4    -0.367484493874E+03    0.50510E-03   -0.36178E-03 57616   0.453E-01    0.599E-01
DAV:   5    -0.367483535916E+03    0.95796E-03   -0.92527E-04 50824   0.283E-01    0.147E-01
DAV:   6    -0.367483521453E+03    0.14463E-04   -0.18650E-04 58856   0.707E-02    0.130E-01
DAV:   7    -0.367483471176E+03    0.50277E-04   -0.51065E-05 51344   0.543E-02    0.111E-01
DAV:   8    -0.367483459017E+03    0.12159E-04   -0.69344E-05 52496   0.738E-02    0.128E-01
DAV:   9    -0.367483441252E+03    0.17765E-04   -0.12287E-04 56280   0.103E-01    0.140E-01
DAV:  10    -0.367483373743E+03    0.67509E-04   -0.91689E-05 58480   0.802E-02    0.200E-02
DAV:  11    -0.367483380086E+03   -0.63428E-05   -0.22798E-05 61552   0.266E-02    0.471E-02
DAV:  12    -0.367483375558E+03    0.45279E-05   -0.81990E-06 49696   0.218E-02    0.122E-02
DAV:  13    -0.367483375489E+03    0.69005E-07   -0.12923E-06 24752   0.849E-03
   2 F= -.36748338E+03 E0= -.36745404E+03  d E =-.880040E-01  mag=    40.2396
       N       E                     dE             d eps       ncg     rms          rms(c)
DAV:   1    -0.367224240920E+03    0.25913E+00   -0.78872E+00 62256   0.261E+01    0.848E-01
DAV:   2    -0.367493800948E+03   -0.26956E+00   -0.25523E+00 48744   0.286E+00    0.256E+00
DAV:   3    -0.367486319289E+03    0.74817E-02   -0.11314E-01 55480   0.156E+00    0.107E+00
DAV:   4    -0.367489901451E+03   -0.35822E-02   -0.15128E-02 58656   0.943E-01    0.149E+00
DAV:   5    -0.367484022021E+03    0.58794E-02   -0.56962E-03 50336   0.694E-01    0.340E-01
DAV:   6    -0.367483885696E+03    0.13632E-03   -0.89549E-04 57624   0.168E-01    0.240E-01
DAV:   7    -0.367483751037E+03    0.13466E-03   -0.26140E-04 51752   0.118E-01    0.233E-01
DAV:   8    -0.367483608022E+03    0.14302E-03   -0.26471E-04 52576   0.139E-01    0.208E-01
DAV:   9    -0.367483695783E+03   -0.87761E-04   -0.43613E-04 53368   0.192E-01    0.308E-01
DAV:  10    -0.367483442688E+03    0.25310E-03   -0.39786E-04 57776   0.178E-01    0.174E-01
DAV:  11    -0.367483372211E+03    0.70476E-04   -0.14156E-04 59200   0.844E-02    0.257E-02
DAV:  12    -0.367483379421E+03   -0.72093E-05   -0.32526E-05 59120   0.272E-02    0.407E-02
DAV:  13    -0.367483375851E+03    0.35693E-05   -0.95435E-06 50112   0.242E-02    0.158E-02
DAV:  14    -0.367483377028E+03   -0.11770E-05   -0.25128E-06 31008   0.148E-02    0.248E-02
DAV:  15    -0.367483375463E+03    0.15654E-05   -0.16152E-06 27608   0.124E-02    0.490E-03
DAV:  16    -0.367483375760E+03   -0.29712E-06   -0.70090E-07 24144   0.587E-03
   3 F= -.36748338E+03 E0= -.36745404E+03  d E =-.880048E-01  mag=    40.2395
