 vasp.5.4.1 05Feb16 (build Oct 12 2016 17:31:35) complex                        
  
 executed on           IFC91_ompi date 2020.09.07  22:41:45
 running on    4 total cores
 distrk:  each k-point on    4 cores,    1 groups
 distr:  one band on NCORES_PER_BAND=   1 cores,    4 groups


--------------------------------------------------------------------------------------------------------


 INCAR:
 POTCAR:   PAW_PBE Ni_pv 06Sep2000                
 POTCAR:   PAW_PBE Ni_pv 06Sep2000                
  local pseudopotential read in
  partial core-charges read in
  atomic valenz-charges read in
  non local Contribution for L=           1  read in
    real space projection operators read in
  non local Contribution for L=           1  read in
    real space projection operators read in
  non local Contribution for L=           2  read in
    real space projection operators read in
  non local Contribution for L=           2  read in
    real space projection operators read in
  non local Contribution for L=           0  read in
    real space projection operators read in
  non local Contribution for L=           0  read in
    real space projection operators read in
    PAW grid and wavefunctions read in
 
   number of l-projection  operators is LMAX  =           6
   number of lm-projection operators is LMMAX =          18
 
 Optimization of the real space projectors (new method)

 maximal supplied QI-value         = 18.90
 optimisation between [QCUT,QGAM] = [  9.83, 19.65] = [ 27.04,108.16] Ry 
 Optimized for a Real-space Cutoff    1.44 Angstroem

   l    n(q)    QCUT    max X(q) W(low)/X(q) W(high)/X(q)  e(spline) 
   1      8     9.827     3.231    0.38E-04    0.39E-04    0.57E-07
   1      8     9.827     4.241    0.57E-04    0.19E-03    0.30E-06
   2      7     9.827     3.566    0.29E-04    0.66E-04    0.48E-07
   2      7     9.827    20.429    0.17E-03    0.37E-03    0.30E-06
   0      8     9.827    19.799    0.18E-04    0.76E-05    0.78E-08
   0      8     9.827    52.283    0.39E-04    0.68E-04    0.44E-07
 PAW_PBE Ni_pv 06Sep2000                :
 energy of atom  1       EATOM=-3500.3496
 kinetic energy error for atom=    0.1419 (will be added to EATOM!!)
 
 
 POSCAR: Supercell by Yi Wang                    
  positions in direct lattice
  No initial velocities read in
 exchange correlation table for  LEXCH =        8
   RHO(1)=    0.500       N(1)  =     2000
   RHO(2)=  100.500       N(2)  =     4000
 


--------------------------------------------------------------------------------------------------------


 ion  position               nearest neighbor table
   1  0.000  0.000  0.000-   2 2.46   4 2.46   5 2.46   8 2.46  13 2.46  14 2.46  17 2.46  20 2.46
                            29 2.46  49 2.46  50 2.46  53 2.46
   2  0.000  0.000  0.250-   1 2.46   3 2.46   5 2.46   6 2.46  14 2.46  15 2.46  17 2.46  18 2.46
                            30 2.46  50 2.46  51 2.46  54 2.46
   3  0.000  0.000  0.500-   2 2.46   4 2.46   6 2.46   7 2.46  15 2.46  16 2.46  18 2.46  19 2.46
                            31 2.46  51 2.46  52 2.46  55 2.46
   4  0.000  0.000  0.750-   1 2.46   3 2.46   7 2.46   8 2.46  13 2.46  16 2.46  19 2.46  20 2.46
                            32 2.46  49 2.46  52 2.46  56 2.46
   5  0.000  0.250  0.000-   1 2.46   2 2.46   6 2.46   8 2.46   9 2.46  12 2.46  17 2.46  21 2.46
                            24 2.46  53 2.46  54 2.46  57 2.46
   6  0.000  0.250  0.250-   2 2.46   3 2.46   5 2.46   7 2.46   9 2.46  10 2.46  18 2.46  21 2.46
                            22 2.46  54 2.46  55 2.46  58 2.46
   7  0.000  0.250  0.500-   3 2.46   4 2.46   6 2.46   8 2.46  10 2.46  11 2.46  19 2.46  22 2.46
                            23 2.46  55 2.46  56 2.46  59 2.46
   8  0.000  0.250  0.750-   1 2.46   4 2.46   5 2.46   7 2.46  11 2.46  12 2.46  20 2.46  23 2.46
                            24 2.46  53 2.46  56 2.46  60 2.46
   9  0.000  0.500  0.000-   5 2.46   6 2.46  10 2.46  12 2.46  13 2.46  16 2.46  21 2.46  25 2.46
                            28 2.46  57 2.46  58 2.46  61 2.46
  10  0.000  0.500  0.250-   6 2.46   7 2.46   9 2.46  11 2.46  13 2.46  14 2.46  22 2.46  25 2.46
                            26 2.46  58 2.46  59 2.46  62 2.46
  11  0.000  0.500  0.500-   7 2.46   8 2.46  10 2.46  12 2.46  14 2.46  15 2.46  23 2.46  26 2.46
                            27 2.46  59 2.46  60 2.46  63 2.46
  12  0.000  0.500  0.750-   5 2.46   8 2.46   9 2.46  11 2.46  15 2.46  16 2.46  24 2.46  27 2.46
                            28 2.46  57 2.46  60 2.46  64 2.46
  13  0.000  0.750  0.000-   1 2.46   4 2.46   9 2.46  10 2.46  14 2.46  16 2.46  25 2.46  29 2.46
                            32 2.46  49 2.46  61 2.46  62 2.46
  14  0.000  0.750  0.250-   1 2.46   2 2.46  10 2.46  11 2.46  13 2.46  15 2.46  26 2.46  29 2.46
                            30 2.46  50 2.46  62 2.46  63 2.46
  15  0.000  0.750  0.500-   2 2.46   3 2.46  11 2.46  12 2.46  14 2.46  16 2.46  27 2.46  30 2.46
                            31 2.46  51 2.46  63 2.46  64 2.46
  16  0.000  0.750  0.750-   3 2.46   4 2.46   9 2.46  12 2.46  13 2.46  15 2.46  28 2.46  31 2.46
                            32 2.46  52 2.46  61 2.46  64 2.46
  17  0.250  0.000  0.000-   1 2.46   2 2.46   5 2.46  18 2.46  20 2.46  21 2.46  24 2.46  29 2.46
                            30 2.46  33 2.46  36 2.46  45 2.46
  18  0.250  0.000  0.250-   2 2.46   3 2.46   6 2.46  17 2.46  19 2.46  21 2.46  22 2.46  30 2.46
                            31 2.46  33 2.46  34 2.46  46 2.46
  19  0.250  0.000  0.500-   3 2.46   4 2.46   7 2.46  18 2.46  20 2.46  22 2.46  23 2.46  31 2.46
                            32 2.46  34 2.46  35 2.46  47 2.46
  20  0.250  0.000  0.750-   1 2.46   4 2.46   8 2.46  17 2.46  19 2.46  23 2.46  24 2.46  29 2.46
                            32 2.46  35 2.46  36 2.46  48 2.46
  21  0.250  0.250  0.000-   5 2.46   6 2.46   9 2.46  17 2.46  18 2.46  22 2.46  24 2.46  25 2.46
                            28 2.46  33 2.46  37 2.46  40 2.46
  22  0.250  0.250  0.250-   6 2.46   7 2.46  10 2.46  18 2.46  19 2.46  21 2.46  23 2.46  25 2.46
                            26 2.46  34 2.46  37 2.46  38 2.46
  23  0.250  0.250  0.500-   7 2.46   8 2.46  11 2.46  19 2.46  20 2.46  22 2.46  24 2.46  26 2.46
                            27 2.46  35 2.46  38 2.46  39 2.46
  24  0.250  0.250  0.750-   5 2.46   8 2.46  12 2.46  17 2.46  20 2.46  21 2.46  23 2.46  27 2.46
                            28 2.46  36 2.46  39 2.46  40 2.46
  25  0.250  0.500  0.000-   9 2.46  10 2.46  13 2.46  21 2.46  22 2.46  26 2.46  28 2.46  29 2.46
                            32 2.46  37 2.46  41 2.46  44 2.46
  26  0.250  0.500  0.250-  10 2.46  11 2.46  14 2.46  22 2.46  23 2.46  25 2.46  27 2.46  29 2.46
                            30 2.46  38 2.46  41 2.46  42 2.46
  27  0.250  0.500  0.500-  11 2.46  12 2.46  15 2.46  23 2.46  24 2.46  26 2.46  28 2.46  30 2.46
                            31 2.46  39 2.46  42 2.46  43 2.46
  28  0.250  0.500  0.750-   9 2.46  12 2.46  16 2.46  21 2.46  24 2.46  25 2.46  27 2.46  31 2.46
                            32 2.46  40 2.46  43 2.46  44 2.46
  29  0.250  0.750  0.000-   1 2.46  13 2.46  14 2.46  17 2.46  20 2.46  25 2.46  26 2.46  30 2.46
                            32 2.46  41 2.46  45 2.46  48 2.46
  30  0.250  0.750  0.250-   2 2.46  14 2.46  15 2.46  17 2.46  18 2.46  26 2.46  27 2.46  29 2.46
                            31 2.46  42 2.46  45 2.46  46 2.46
  31  0.250  0.750  0.500-   3 2.46  15 2.46  16 2.46  18 2.46  19 2.46  27 2.46  28 2.46  30 2.46
                            32 2.46  43 2.46  46 2.46  47 2.46
  32  0.250  0.750  0.750-   4 2.46  13 2.46  16 2.46  19 2.46  20 2.46  25 2.46  28 2.46  29 2.46
                            31 2.46  44 2.46  47 2.46  48 2.46
  33  0.500  0.000  0.000-  17 2.46  18 2.46  21 2.46  34 2.46  36 2.46  37 2.46  40 2.46  45 2.46
                            46 2.46  49 2.46  52 2.46  61 2.46
  34  0.500  0.000  0.250-  18 2.46  19 2.46  22 2.46  33 2.46  35 2.46  37 2.46  38 2.46  46 2.46
                            47 2.46  49 2.46  50 2.46  62 2.46
  35  0.500  0.000  0.500-  19 2.46  20 2.46  23 2.46  34 2.46  36 2.46  38 2.46  39 2.46  47 2.46
                            48 2.46  50 2.46  51 2.46  63 2.46
  36  0.500  0.000  0.750-  17 2.46  20 2.46  24 2.46  33 2.46  35 2.46  39 2.46  40 2.46  45 2.46
                            48 2.46  51 2.46  52 2.46  64 2.46
  37  0.500  0.250  0.000-  21 2.46  22 2.46  25 2.46  33 2.46  34 2.46  38 2.46  40 2.46  41 2.46
                            44 2.46  49 2.46  53 2.46  56 2.46
  38  0.500  0.250  0.250-  22 2.46  23 2.46  26 2.46  34 2.46  35 2.46  37 2.46  39 2.46  41 2.46
                            42 2.46  50 2.46  53 2.46  54 2.46
  39  0.500  0.250  0.500-  23 2.46  24 2.46  27 2.46  35 2.46  36 2.46  38 2.46  40 2.46  42 2.46
                            43 2.46  51 2.46  54 2.46  55 2.46
  40  0.500  0.250  0.750-  21 2.46  24 2.46  28 2.46  33 2.46  36 2.46  37 2.46  39 2.46  43 2.46
                            44 2.46  52 2.46  55 2.46  56 2.46
  41  0.500  0.500  0.000-  25 2.46  26 2.46  29 2.46  37 2.46  38 2.46  42 2.46  44 2.46  45 2.46
                            48 2.46  53 2.46  57 2.46  60 2.46
  42  0.500  0.500  0.250-  26 2.46  27 2.46  30 2.46  38 2.46  39 2.46  41 2.46  43 2.46  45 2.46
                            46 2.46  54 2.46  57 2.46  58 2.46
  43  0.500  0.500  0.500-  27 2.46  28 2.46  31 2.46  39 2.46  40 2.46  42 2.46  44 2.46  46 2.46
                            47 2.46  55 2.46  58 2.46  59 2.46
  44  0.500  0.500  0.750-  25 2.46  28 2.46  32 2.46  37 2.46  40 2.46  41 2.46  43 2.46  47 2.46
                            48 2.46  56 2.46  59 2.46  60 2.46
  45  0.500  0.750  0.000-  17 2.46  29 2.46  30 2.46  33 2.46  36 2.46  41 2.46  42 2.46  46 2.46
                            48 2.46  57 2.46  61 2.46  64 2.46
  46  0.500  0.750  0.250-  18 2.46  30 2.46  31 2.46  33 2.46  34 2.46  42 2.46  43 2.46  45 2.46
                            47 2.46  58 2.46  61 2.46  62 2.46
  47  0.500  0.750  0.500-  19 2.46  31 2.46  32 2.46  34 2.46  35 2.46  43 2.46  44 2.46  46 2.46
                            48 2.46  59 2.46  62 2.46  63 2.46
  48  0.500  0.750  0.750-  20 2.46  29 2.46  32 2.46  35 2.46  36 2.46  41 2.46  44 2.46  45 2.46
                            47 2.46  60 2.46  63 2.46  64 2.46
  49  0.750  0.000  0.000-   1 2.46   4 2.46  13 2.46  33 2.46  34 2.46  37 2.46  50 2.46  52 2.46
                            53 2.46  56 2.46  61 2.46  62 2.46
  50  0.750  0.000  0.250-   1 2.46   2 2.46  14 2.46  34 2.46  35 2.46  38 2.46  49 2.46  51 2.46
                            53 2.46  54 2.46  62 2.46  63 2.46
  51  0.750  0.000  0.500-   2 2.46   3 2.46  15 2.46  35 2.46  36 2.46  39 2.46  50 2.46  52 2.46
                            54 2.46  55 2.46  63 2.46  64 2.46
  52  0.750  0.000  0.750-   3 2.46   4 2.46  16 2.46  33 2.46  36 2.46  40 2.46  49 2.46  51 2.46
                            55 2.46  56 2.46  61 2.46  64 2.46
  53  0.750  0.250  0.000-   1 2.46   5 2.46   8 2.46  37 2.46  38 2.46  41 2.46  49 2.46  50 2.46
                            54 2.46  56 2.46  57 2.46  60 2.46
  54  0.750  0.250  0.250-   2 2.46   5 2.46   6 2.46  38 2.46  39 2.46  42 2.46  50 2.46  51 2.46
                            53 2.46  55 2.46  57 2.46  58 2.46
  55  0.750  0.250  0.500-   3 2.46   6 2.46   7 2.46  39 2.46  40 2.46  43 2.46  51 2.46  52 2.46
                            54 2.46  56 2.46  58 2.46  59 2.46
  56  0.750  0.250  0.750-   4 2.46   7 2.46   8 2.46  37 2.46  40 2.46  44 2.46  49 2.46  52 2.46
                            53 2.46  55 2.46  59 2.46  60 2.46
  57  0.750  0.500  0.000-   5 2.46   9 2.46  12 2.46  41 2.46  42 2.46  45 2.46  53 2.46  54 2.46
                            58 2.46  60 2.46  61 2.46  64 2.46
  58  0.750  0.500  0.250-   6 2.46   9 2.46  10 2.46  42 2.46  43 2.46  46 2.46  54 2.46  55 2.46
                            57 2.46  59 2.46  61 2.46  62 2.46
  59  0.750  0.500  0.500-   7 2.46  10 2.46  11 2.46  43 2.46  44 2.46  47 2.46  55 2.46  56 2.46
                            58 2.46  60 2.46  62 2.46  63 2.46
  60  0.750  0.500  0.750-   8 2.46  11 2.46  12 2.46  41 2.46  44 2.46  48 2.46  53 2.46  56 2.46
                            57 2.46  59 2.46  63 2.46  64 2.46
  61  0.750  0.750  0.000-   9 2.46  13 2.46  16 2.46  33 2.46  45 2.46  46 2.46  49 2.46  52 2.46
                            57 2.46  58 2.46  62 2.46  64 2.46
  62  0.750  0.750  0.250-  10 2.46  13 2.46  14 2.46  34 2.46  46 2.46  47 2.46  49 2.46  50 2.46
                            58 2.46  59 2.46  61 2.46  63 2.46
  63  0.750  0.750  0.500-  11 2.46  14 2.46  15 2.46  35 2.46  47 2.46  48 2.46  50 2.46  51 2.46
                            59 2.46  60 2.46  62 2.46  64 2.46
  64  0.750  0.750  0.750-  12 2.46  15 2.46  16 2.46  36 2.46  45 2.46  48 2.46  51 2.46  52 2.46
                            57 2.46  60 2.46  61 2.46  63 2.46
 
  LATTYP: Found a face centered cubic cell.
 ALAT       =    13.8885000000
  
  Lattice vectors:
  
 A1 = (   0.0000000000,   6.9442500000,   6.9442500000)
 A2 = (   6.9442500000,   0.0000000000,   6.9442500000)
 A3 = (   6.9442500000,   6.9442500000,   0.0000000000)


Analysis of symmetry for initial positions (statically):
=====================================================================
 Subroutine PRICEL returns following result:
 
  LATTYP: Found a face centered cubic cell.
 ALAT       =     3.4721250000
  
  Lattice vectors:
  
 A1 = (   0.0000000000,   1.7360625000,   1.7360625000)
 A2 = (   1.7360625000,   0.0000000000,   1.7360625000)
 A3 = (   1.7360625000,   1.7360625000,   0.0000000000)
 
  64 primitive cells build up your supercell.
 

 Routine SETGRP: Setting up the symmetry group for a 
 face centered cubic supercell.


 Subroutine GETGRP returns: Found 48 space group operations
 (whereof 48 operations were pure point group operations)
 out of a pool of 48 trial point group operations.


The static configuration has the point symmetry O_h .


Analysis of symmetry for dynamics (positions and initial velocities):
=====================================================================
 Subroutine PRICEL returns following result:
 
  LATTYP: Found a face centered cubic cell.
 ALAT       =     3.4721250000
  
  Lattice vectors:
  
 A1 = (   0.0000000000,   1.7360625000,   1.7360625000)
 A2 = (   1.7360625000,   0.0000000000,   1.7360625000)
 A3 = (   1.7360625000,   1.7360625000,   0.0000000000)
 
  64 primitive cells build up your supercell.
 

 Routine SETGRP: Setting up the symmetry group for a 
 face centered cubic supercell.


 Subroutine GETGRP returns: Found 48 space group operations
 (whereof 48 operations were pure point group operations)
 out of a pool of 48 trial point group operations.


The dynamic configuration has the point symmetry O_h .


Analysis of structural, dynamic, and magnetic symmetry:
=====================================================================
 Subroutine PRICEL returns following result:
 
  LATTYP: Found a face centered cubic cell.
 ALAT       =     3.4721250000
  
  Lattice vectors:
  
 A1 = (   0.0000000000,   1.7360625000,   1.7360625000)
 A2 = (   1.7360625000,   0.0000000000,   1.7360625000)
 A3 = (   1.7360625000,   1.7360625000,   0.0000000000)
 
  64 primitive cells build up your supercell.
 

 Routine SETGRP: Setting up the symmetry group for a 
 face centered cubic supercell.


 Subroutine GETGRP returns: Found 48 space group operations
 (whereof 48 operations were pure point group operations)
 out of a pool of 48 trial point group operations.


The magnetic configuration has the point symmetry O_h .


 Subroutine INISYM returns: Found 48 space group operations
 (whereof 48 operations are pure point group operations),
 and found    64 'primitive' translations

 
 
 KPOINTS: Zr 15x15x15                             

Automatic generation of k-mesh.
Space group operators:
 irot       det(A)        alpha          n_x          n_y          n_z        tau_x        tau_y        tau_z
    1     1.000000     0.000001     1.000000     0.000000     0.000000     0.000000     0.000000     0.000000
    2    -1.000000     0.000001     1.000000     0.000000     0.000000     0.000000     0.000000     0.000000
    3     1.000000   120.000000    -0.577350    -0.577350    -0.577350     0.000000     0.000000     0.000000
    4    -1.000000   120.000000    -0.577350    -0.577350    -0.577350     0.000000     0.000000     0.000000
    5     1.000000   120.000000     0.577350     0.577350     0.577350     0.000000     0.000000     0.000000
    6    -1.000000   120.000000     0.577350     0.577350     0.577350     0.000000     0.000000     0.000000
    7     1.000000    90.000000     0.000000     0.000000    -1.000000     0.000000     0.000000     0.000000
    8    -1.000000    90.000000     0.000000     0.000000    -1.000000     0.000000     0.000000     0.000000
    9     1.000000   180.000000     0.000000     0.707107     0.707107     0.000000     0.000000     0.000000
   10    -1.000000   180.000000     0.000000     0.707107     0.707107     0.000000     0.000000     0.000000
   11     1.000000    90.000000     0.000000     1.000000     0.000000     0.000000     0.000000     0.000000
   12    -1.000000    90.000000     0.000000     1.000000     0.000000     0.000000     0.000000     0.000000
   13     1.000000   180.000000     0.000000     0.000000     1.000000     0.000000     0.000000     0.000000
   14    -1.000000   180.000000     0.000000     0.000000     1.000000     0.000000     0.000000     0.000000
   15     1.000000   120.000000    -0.577350     0.577350     0.577350     0.000000     0.000000     0.000000
   16    -1.000000   120.000000    -0.577350     0.577350     0.577350     0.000000     0.000000     0.000000
   17     1.000000   120.000000    -0.577350     0.577350    -0.577350     0.000000     0.000000     0.000000
   18    -1.000000   120.000000    -0.577350     0.577350    -0.577350     0.000000     0.000000     0.000000
   19     1.000000    90.000000     0.000000     0.000000     1.000000     0.000000     0.000000     0.000000
   20    -1.000000    90.000000     0.000000     0.000000     1.000000     0.000000     0.000000     0.000000
   21     1.000000    90.000000    -1.000000     0.000000     0.000000     0.000000     0.000000     0.000000
   22    -1.000000    90.000000    -1.000000     0.000000     0.000000     0.000000     0.000000     0.000000
   23     1.000000   180.000000     0.707107     0.000000     0.707107     0.000000     0.000000     0.000000
   24    -1.000000   180.000000     0.707107     0.000000     0.707107     0.000000     0.000000     0.000000
   25     1.000000   120.000000     0.577350    -0.577350     0.577350     0.000000     0.000000     0.000000
   26    -1.000000   120.000000     0.577350    -0.577350     0.577350     0.000000     0.000000     0.000000
   27     1.000000   120.000000    -0.577350    -0.577350     0.577350     0.000000     0.000000     0.000000
   28    -1.000000   120.000000    -0.577350    -0.577350     0.577350     0.000000     0.000000     0.000000
   29     1.000000   180.000000     1.000000     0.000000     0.000000     0.000000     0.000000     0.000000
   30    -1.000000   180.000000     1.000000     0.000000     0.000000     0.000000     0.000000     0.000000
   31     1.000000    90.000000     0.000000    -1.000000     0.000000     0.000000     0.000000     0.000000
   32    -1.000000    90.000000     0.000000    -1.000000     0.000000     0.000000     0.000000     0.000000
   33     1.000000   180.000000     0.707107     0.707107     0.000000     0.000000     0.000000     0.000000
   34    -1.000000   180.000000     0.707107     0.707107     0.000000     0.000000     0.000000     0.000000
   35     1.000000    90.000000     1.000000     0.000000     0.000000     0.000000     0.000000     0.000000
   36    -1.000000    90.000000     1.000000     0.000000     0.000000     0.000000     0.000000     0.000000
   37     1.000000   120.000000     0.577350    -0.577350    -0.577350     0.000000     0.000000     0.000000
   38    -1.000000   120.000000     0.577350    -0.577350    -0.577350     0.000000     0.000000     0.000000
   39     1.000000   180.000000     0.000000     1.000000     0.000000     0.000000     0.000000     0.000000
   40    -1.000000   180.000000     0.000000     1.000000     0.000000     0.000000     0.000000     0.000000
   41     1.000000   120.000000     0.577350     0.577350    -0.577350     0.000000     0.000000     0.000000
   42    -1.000000   120.000000     0.577350     0.577350    -0.577350     0.000000     0.000000     0.000000
   43     1.000000   180.000000     0.000000    -0.707107     0.707107     0.000000     0.000000     0.000000
   44    -1.000000   180.000000     0.000000    -0.707107     0.707107     0.000000     0.000000     0.000000
   45     1.000000   180.000000     0.707107    -0.707107     0.000000     0.000000     0.000000     0.000000
   46    -1.000000   180.000000     0.707107    -0.707107     0.000000     0.000000     0.000000     0.000000
   47     1.000000   180.000000     0.707107     0.000000    -0.707107     0.000000     0.000000     0.000000
   48    -1.000000   180.000000     0.707107     0.000000    -0.707107     0.000000     0.000000     0.000000
 
 Subroutine IBZKPT returns following result:
 ===========================================
 
 Found     10 irreducible k-points:
 
 Following reciprocal coordinates:
            Coordinates               Weight
  0.000000  0.000000  0.000000      1.000000
  0.200000  0.000000  0.000000      8.000000
  0.400000  0.000000  0.000000      8.000000
  0.200000  0.200000  0.000000      6.000000
  0.400000  0.200000  0.000000     24.000000
 -0.400000  0.200000  0.000000     24.000000
 -0.200000  0.200000  0.000000     12.000000
  0.400000  0.400000  0.000000      6.000000
 -0.400000  0.400000  0.000000     12.000000
 -0.400000  0.400000  0.200000     24.000000
 
 Following cartesian coordinates:
            Coordinates               Weight
  0.000000  0.000000  0.000000      1.000000
 -0.014400  0.014400  0.014400      8.000000
 -0.028801  0.028801  0.028801      8.000000
  0.000000  0.000000  0.028801      6.000000
 -0.014400  0.014400  0.043201     24.000000
  0.043201 -0.043201 -0.014400     24.000000
  0.028801 -0.028801  0.000000     12.000000
  0.000000  0.000000  0.057602      6.000000
  0.057602 -0.057602  0.000000     12.000000
  0.072002 -0.043201 -0.014400     24.000000
 
 
 Subroutine IBZKPT_HF returns following result:
 ==============================================
 
 Found    125 k-points in 1st BZ
 the following    125 k-points will be used (e.g. in the exchange kernel)
 Following reciprocal coordinates:   # in IRBZ
  0.000000  0.000000  0.000000    0.00800000   1 t-inv F
  0.200000  0.000000  0.000000    0.00800000   2 t-inv F
  0.400000  0.000000  0.000000    0.00800000   3 t-inv F
  0.200000  0.200000  0.000000    0.00800000   4 t-inv F
  0.400000  0.200000  0.000000    0.00800000   5 t-inv F
 -0.400000  0.200000  0.000000    0.00800000   6 t-inv F
 -0.200000  0.200000  0.000000    0.00800000   7 t-inv F
  0.400000  0.400000  0.000000    0.00800000   8 t-inv F
 -0.400000  0.400000  0.000000    0.00800000   9 t-inv F
 -0.400000  0.400000  0.200000    0.00800000  10 t-inv F
 -0.200000  0.000000  0.000000    0.00800000   2 t-inv F
  0.000000  0.200000  0.000000    0.00800000   2 t-inv F
  0.000000 -0.200000  0.000000    0.00800000   2 t-inv F
  0.000000  0.000000  0.200000    0.00800000   2 t-inv F
  0.000000  0.000000 -0.200000    0.00800000   2 t-inv F
  0.200000  0.200000  0.200000    0.00800000   2 t-inv F
 -0.200000 -0.200000 -0.200000    0.00800000   2 t-inv F
 -0.400000  0.000000  0.000000    0.00800000   3 t-inv F
  0.000000  0.400000  0.000000    0.00800000   3 t-inv F
  0.000000 -0.400000  0.000000    0.00800000   3 t-inv F
  0.000000  0.000000  0.400000    0.00800000   3 t-inv F
  0.000000  0.000000 -0.400000    0.00800000   3 t-inv F
  0.400000  0.400000  0.400000    0.00800000   3 t-inv F
 -0.400000 -0.400000 -0.400000    0.00800000   3 t-inv F
 -0.200000 -0.200000  0.000000    0.00800000   4 t-inv F
  0.000000  0.200000  0.200000    0.00800000   4 t-inv F
  0.000000 -0.200000 -0.200000    0.00800000   4 t-inv F
  0.200000  0.000000  0.200000    0.00800000   4 t-inv F
 -0.200000  0.000000 -0.200000    0.00800000   4 t-inv F
 -0.400000 -0.200000  0.000000    0.00800000   5 t-inv F
  0.000000  0.400000  0.200000    0.00800000   5 t-inv F
  0.000000 -0.400000 -0.200000    0.00800000   5 t-inv F
  0.200000  0.000000  0.400000    0.00800000   5 t-inv F
 -0.200000  0.000000 -0.400000    0.00800000   5 t-inv F
  0.200000  0.200000 -0.200000    0.00800000   5 t-inv F
 -0.200000 -0.200000  0.200000    0.00800000   5 t-inv F
  0.400000  0.200000  0.400000    0.00800000   5 t-inv F
 -0.400000 -0.200000 -0.400000    0.00800000   5 t-inv F
  0.200000  0.400000  0.000000    0.00800000   5 t-inv F
 -0.200000 -0.400000  0.000000    0.00800000   5 t-inv F
  0.200000 -0.200000 -0.200000    0.00800000   5 t-inv F
 -0.200000  0.200000  0.200000    0.00800000   5 t-inv F
  0.400000  0.400000  0.200000    0.00800000   5 t-inv F
 -0.400000 -0.400000 -0.200000    0.00800000   5 t-inv F
  0.000000  0.200000  0.400000    0.00800000   5 t-inv F
  0.000000 -0.200000 -0.400000    0.00800000   5 t-inv F
 -0.200000  0.200000 -0.200000    0.00800000   5 t-inv F
  0.200000 -0.200000  0.200000    0.00800000   5 t-inv F
  0.200000  0.400000  0.400000    0.00800000   5 t-inv F
 -0.200000 -0.400000 -0.400000    0.00800000   5 t-inv F
  0.400000  0.000000  0.200000    0.00800000   5 t-inv F
 -0.400000  0.000000 -0.200000    0.00800000   5 t-inv F
  0.400000 -0.200000  0.000000    0.00800000   6 t-inv F
  0.000000 -0.400000  0.200000    0.00800000   6 t-inv F
  0.000000  0.400000 -0.200000    0.00800000   6 t-inv F
  0.200000  0.000000 -0.400000    0.00800000   6 t-inv F
 -0.200000  0.000000  0.400000    0.00800000   6 t-inv F
  0.200000  0.200000  0.600000    0.00800000   6 t-inv F
 -0.200000 -0.200000 -0.600000    0.00800000   6 t-inv F
 -0.400000 -0.600000 -0.400000    0.00800000   6 t-inv F
  0.400000  0.600000  0.400000    0.00800000   6 t-inv F
  0.200000 -0.400000  0.000000    0.00800000   6 t-inv F
 -0.200000  0.400000  0.000000    0.00800000   6 t-inv F
 -0.600000 -0.200000 -0.200000    0.00800000   6 t-inv F
  0.600000  0.200000  0.200000    0.00800000   6 t-inv F
 -0.400000 -0.400000 -0.600000    0.00800000   6 t-inv F
  0.400000  0.400000  0.600000    0.00800000   6 t-inv F
  0.000000  0.200000 -0.400000    0.00800000   6 t-inv F
  0.000000 -0.200000  0.400000    0.00800000   6 t-inv F
 -0.200000 -0.600000 -0.200000    0.00800000   6 t-inv F
  0.200000  0.600000  0.200000    0.00800000   6 t-inv F
 -0.600000 -0.400000 -0.400000    0.00800000   6 t-inv F
  0.600000  0.400000  0.400000    0.00800000   6 t-inv F
 -0.400000  0.000000  0.200000    0.00800000   6 t-inv F
  0.400000  0.000000 -0.200000    0.00800000   6 t-inv F
  0.200000 -0.200000  0.000000    0.00800000   7 t-inv F
  0.000000 -0.200000  0.200000    0.00800000   7 t-inv F
  0.000000  0.200000 -0.200000    0.00800000   7 t-inv F
  0.200000  0.000000 -0.200000    0.00800000   7 t-inv F
 -0.200000  0.000000  0.200000    0.00800000   7 t-inv F
  0.200000  0.200000  0.400000    0.00800000   7 t-inv F
 -0.200000 -0.200000 -0.400000    0.00800000   7 t-inv F
 -0.200000 -0.400000 -0.200000    0.00800000   7 t-inv F
  0.200000  0.400000  0.200000    0.00800000   7 t-inv F
 -0.400000 -0.200000 -0.200000    0.00800000   7 t-inv F
  0.400000  0.200000  0.200000    0.00800000   7 t-inv F
 -0.400000 -0.400000  0.000000    0.00800000   8 t-inv F
  0.000000  0.400000  0.400000    0.00800000   8 t-inv F
  0.000000 -0.400000 -0.400000    0.00800000   8 t-inv F
  0.400000  0.000000  0.400000    0.00800000   8 t-inv F
 -0.400000  0.000000 -0.400000    0.00800000   8 t-inv F
  0.400000 -0.400000  0.000000    0.00800000   9 t-inv F
  0.000000 -0.400000  0.400000    0.00800000   9 t-inv F
  0.000000  0.400000 -0.400000    0.00800000   9 t-inv F
  0.400000  0.000000 -0.400000    0.00800000   9 t-inv F
 -0.400000  0.000000  0.400000    0.00800000   9 t-inv F
  0.400000  0.400000  0.800000    0.00800000   9 t-inv F
 -0.400000 -0.400000 -0.800000    0.00800000   9 t-inv F
 -0.400000 -0.800000 -0.400000    0.00800000   9 t-inv F
  0.400000  0.800000  0.400000    0.00800000   9 t-inv F
 -0.800000 -0.400000 -0.400000    0.00800000   9 t-inv F
  0.800000  0.400000  0.400000    0.00800000   9 t-inv F
  0.400000 -0.400000 -0.200000    0.00800000  10 t-inv F
  0.200000 -0.400000  0.400000    0.00800000  10 t-inv F
 -0.200000  0.400000 -0.400000    0.00800000  10 t-inv F
  0.400000  0.200000 -0.400000    0.00800000  10 t-inv F
 -0.400000 -0.200000  0.400000    0.00800000  10 t-inv F
  0.400000  0.200000  0.800000    0.00800000  10 t-inv F
 -0.400000 -0.200000 -0.800000    0.00800000  10 t-inv F
 -0.400000 -0.800000 -0.600000    0.00800000  10 t-inv F
  0.400000  0.800000  0.600000    0.00800000  10 t-inv F
  0.200000  0.600000 -0.200000    0.00800000  10 t-inv F
 -0.200000 -0.600000  0.200000    0.00800000  10 t-inv F
  0.200000 -0.600000 -0.200000    0.00800000  10 t-inv F
 -0.200000  0.600000  0.200000    0.00800000  10 t-inv F
 -0.800000 -0.200000 -0.400000    0.00800000  10 t-inv F
  0.800000  0.200000  0.400000    0.00800000  10 t-inv F
 -0.600000 -0.400000 -0.800000    0.00800000  10 t-inv F
  0.600000  0.400000  0.800000    0.00800000  10 t-inv F
 -0.200000  0.200000  0.600000    0.00800000  10 t-inv F
  0.200000 -0.200000 -0.600000    0.00800000  10 t-inv F
 -0.400000 -0.800000 -0.200000    0.00800000  10 t-inv F
  0.400000  0.800000  0.200000    0.00800000  10 t-inv F
 -0.800000 -0.600000 -0.400000    0.00800000  10 t-inv F
  0.800000  0.600000  0.400000    0.00800000  10 t-inv F


--------------------------------------------------------------------------------------------------------




 Dimension of arrays:
   k-points           NKPTS =     10   k-points in BZ     NKDIM =     10   number of bands    NBANDS=    648
   number of dos      NEDOS =    301   number of ions     NIONS =     64
   non local maximal  LDIM  =      6   non local SUM 2l+1 LMDIM =     18
   total plane-waves  NPLWV = 262144
   max r-space proj   IRMAX =   4939   max aug-charges    IRDMAX=   8840
   dimension x,y,z NGX =    64 NGY =   64 NGZ =   64
   dimension x,y,z NGXF=   128 NGYF=  128 NGZF=  128
   support grid    NGXF=   128 NGYF=  128 NGZF=  128
   ions per type =              64
 NGX,Y,Z   is equivalent  to a cutoff of  10.83, 10.83, 10.83 a.u.
 NGXF,Y,Z  is equivalent  to a cutoff of  21.67, 21.67, 21.67 a.u.


 I would recommend the setting:
   dimension x,y,z NGX =    61 NGY =   61 NGZ =   61
 SYSTEM =  phonon of Zr bcc - omiga                
 POSCAR =  Supercell by Yi Wang                    

 Startparameter for this run:
   NWRITE =      0    write-flag & timer
   PREC   = a         normal or accurate (medium, high low for compatibility)
   ISTART =      0    job   : 0-new  1-cont  2-samecut
   ICHARG =      2    charge: 1-file 2-atom 10-const
   ISPIN  =      2    spin polarized calculation?
   LNONCOLLINEAR =      F non collinear calculations
   LSORBIT =      F    spin-orbit coupling
   INIWAV =      1    electr: 0-lowe 1-rand  2-diag
   LASPH  =      F    aspherical Exc in radial PAW
   METAGGA=      F    non-selfconsistent MetaGGA calc.

 Electronic Relaxation 1
   ENCUT  =  367.9 eV  27.04 Ry    5.20 a.u.  15.36 15.36 15.36*2*pi/ulx,y,z
   ENINI  =  367.9     initial cutoff
   ENAUG  =  703.4 eV  augmentation charge cutoff
   NELM   =     60;   NELMIN=  2; NELMDL=  0     # of ELM steps 
   EDIFF  = 0.1E-05   stopping-criterion for ELM
   LREAL  =      T    real-space projection
   NLSPLINE    = F    spline interpolate recip. space projectors
   LCOMPAT=      F    compatible to vasp.4.4
   GGA_COMPAT  = T    GGA compatible to vasp.4.4-vasp.4.6
   LMAXPAW     = -100 max onsite density
   LMAXMIX     =    2 max onsite mixed and CHGCAR
   VOSKOWN=      0    Vosko Wilk Nusair interpolation
   ROPT   =   -0.00025
 Ionic relaxation
   EDIFFG = 0.1E-04   stopping-criterion for IOM
   NSW    =    805    number of steps for IOM
   NBLOCK =      1;   KBLOCK =      1    inner block; outer block 
   IBRION =      6    ionic relax: 0-MD 1-quasi-New 2-CG
   NFREE  =      2    steps in history (QN), initial steepest desc. (CG)
   ISIF   =      2    stress and relaxation
   IWAVPR =     11    prediction:  0-non 1-charg 2-wave 3-comb
   ISYM   =      2    0-nonsym 1-usesym 2-fastsym
   LCORR  =      T    Harris-Foulkes like correction to forces

   POTIM  = 0.5000    time-step for ionic-motion
   TEIN   =    0.0    initial temperature
   TEBEG  =    0.0;   TEEND  =   0.0 temperature during run
   SMASS  =  -3.00    Nose mass-parameter (am)
   estimated Nose-frequenzy (Omega)   =  0.10E-29 period in steps =****** mass=  -0.220E-26a.u.
   SCALEE = 1.0000    scale energy and forces
   NPACO  =    256;   APACO  = 16.0  distance and # of slots for P.C.
   PSTRESS=    0.0 pullay stress

  Mass of Ions in am
   POMASS =  58.69
  Ionic Valenz
   ZVAL   =  16.00
  Atomic Wigner-Seitz radii
   RWIGS  =  -1.00
  virtual crystal weights 
   VCA    =   1.00
   NELECT =    1024.0000    total number of electrons
   NUPDOWN=      -1.0000    fix difference up-down

 DOS related values:
   EMIN   =  10.00;   EMAX   =-10.00  energy-range for DOS
   EFERMI =   0.00
   ISMEAR =     1;   SIGMA  =   0.20  broadening in eV -4-tet -1-fermi 0-gaus

 Electronic relaxation 2 (details)
   IALGO  =     38    algorithm
   LDIAG  =      T    sub-space diagonalisation (order eigenvalues)
   LSUBROT=      F    optimize rotation matrix (better conditioning)
   TURBO    =      0    0=normal 1=particle mesh
   IRESTART =      0    0=no restart 2=restart with 2 vectors
   NREBOOT  =      0    no. of reboots
   NMIN     =      0    reboot dimension
   EREF     =   0.00    reference energy to select bands
   IMIX   =      4    mixing-type and parameters
     AMIX     =   0.40;   BMIX     =  1.00
     AMIX_MAG =   1.60;   BMIX_MAG =  1.00
     AMIN     =   0.10
     WC   =   100.;   INIMIX=   1;  MIXPRE=   1;  MAXMIX= -45

 Intra band minimization:
   WEIMIN = 0.0010     energy-eigenvalue tresh-hold
   EBREAK =  0.39E-09  absolut break condition
   DEPER  =   0.30     relativ break condition  

   TIME   =   0.40     timestep for ELM

  volume/ion in A,a.u.               =      10.46        70.62
  Fermi-wavevector in a.u.,A,eV,Ry     =   1.885990  3.564005 48.395374  3.556960
  Thomas-Fermi vector in A             =   2.928354
 
 Write flags
   LWAVE  =      T    write WAVECAR
   LCHARG =      T    write CHGCAR
   LVTOT  =      F    write LOCPOT, total local potential
   LVHAR  =      F    write LOCPOT, Hartree potential only
   LELF   =      F    write electronic localiz. function (ELF)
   LORBIT =      0    0 simple, 1 ext, 2 COOP (PROOUT)


 Dipole corrections
   LMONO  =      F    monopole corrections only (constant potential shift)
   LDIPOL =      F    correct potential (dipole corrections)
   IDIPOL =      0    1-x, 2-y, 3-z, 4-all directions 
   EPSILON=  1.0000000 bulk dielectric constant

 Exchange correlation treatment:
   GGA     =    --    GGA type
   LEXCH   =     8    internal setting for exchange type
   VOSKOWN=      0    Vosko Wilk Nusair interpolation
   LHFCALC =     F    Hartree Fock is set to
   LHFONE  =     F    Hartree Fock one center treatment
   AEXX    =    0.0000 exact exchange contribution

 Linear response parameters
   LEPSILON=     F    determine dielectric tensor
   LRPA    =     F    only Hartree local field effects (RPA)
   LNABLA  =     F    use nabla operator in PAW spheres
   LVEL    =     F    velocity operator in full k-point grid
   LINTERFAST=   F  fast interpolation
   KINTER  =     0    interpolate to denser k-point grid
   CSHIFT  =0.1000    complex shift for real part using Kramers Kronig
   OMEGAMAX=  -1.0    maximum frequency
   DEG_THRESHOLD= 0.2000000E-02 threshold for treating states as degnerate
   RTIME   =    0.100 relaxation time in fs

 Orbital magnetization related:
   ORBITALMAG=     F  switch on orbital magnetization
   LCHIMAG   =     F  perturbation theory with respect to B field
   DQ        =  0.001000  dq finite difference perturbation B field



--------------------------------------------------------------------------------------------------------


 finite differences with symmetry
 charge density and potential will be updated during run
 spin polarized calculation
 Variant of blocked Davidson
 Davidson routine will perform the subspace rotation
 perform sub-space diagonalisation
    after iterative eigenvector-optimisation
 modified Broyden-mixing scheme, WC =      100.0
 initial mixing is a Kerker type mixing with AMIX =  0.4000 and BMIX =      1.0000
 Hartree-type preconditioning will be used
 using additional bands          136
 real space projection scheme for non local part
 use partial core corrections
 calculate Harris-corrections to forces 
   (improved forces if not selfconsistent)
 use gradient corrections 
 use of overlap-Matrix (Vanderbilt PP)
 Methfessel and Paxton  Order N= 1 SIGMA  =   0.20


--------------------------------------------------------------------------------------------------------


  energy-cutoff  :      367.94
  volume of cell :      669.74
      direct lattice vectors                 reciprocal lattice vectors
     0.000000000  6.944250000  6.944250000    -0.072002016  0.072002016  0.072002016
     6.944250000  0.000000000  6.944250000     0.072002016 -0.072002016  0.072002016
     6.944250000  6.944250000  0.000000000     0.072002016  0.072002016 -0.072002016

  length of vectors
     9.820652531  9.820652531  9.820652531     0.124711150  0.124711150  0.124711150


 
 k-points in units of 2pi/SCALE and weight: Zr 15x15x15                             
   0.00000000  0.00000000  0.00000000       0.008
  -0.01440040  0.01440040  0.01440040       0.064
  -0.02880081  0.02880081  0.02880081       0.064
   0.00000000  0.00000000  0.02880081       0.048
  -0.01440040  0.01440040  0.04320121       0.192
   0.04320121 -0.04320121 -0.01440040       0.192
   0.02880081 -0.02880081  0.00000000       0.096
   0.00000000  0.00000000  0.05760161       0.048
   0.05760161 -0.05760161  0.00000000       0.096
   0.07200202 -0.04320121 -0.01440040       0.192
 
 k-points in reciprocal lattice and weights: Zr 15x15x15                             
   0.00000000  0.00000000  0.00000000       0.008
   0.20000000  0.00000000  0.00000000       0.064
   0.40000000  0.00000000  0.00000000       0.064
   0.20000000  0.20000000  0.00000000       0.048
   0.40000000  0.20000000  0.00000000       0.192
  -0.40000000  0.20000000  0.00000000       0.192
  -0.20000000  0.20000000  0.00000000       0.096
   0.40000000  0.40000000  0.00000000       0.048
  -0.40000000  0.40000000  0.00000000       0.096
  -0.40000000  0.40000000  0.20000000       0.192
 
 position of ions in fractional coordinates (direct lattice) 
   0.00000000  0.00000000  0.00000000
   0.00000000  0.00000000  0.25000000
   0.00000000  0.00000000  0.50000000
   0.00000000  0.00000000  0.75000000
   0.00000000  0.25000000  0.00000000
   0.00000000  0.25000000  0.25000000
   0.00000000  0.25000000  0.50000000
   0.00000000  0.25000000  0.75000000
   0.00000000  0.50000000  0.00000000
   0.00000000  0.50000000  0.25000000
   0.00000000  0.50000000  0.50000000
   0.00000000  0.50000000  0.75000000
   0.00000000  0.75000000  0.00000000
   0.00000000  0.75000000  0.25000000
   0.00000000  0.75000000  0.50000000
   0.00000000  0.75000000  0.75000000
   0.25000000  0.00000000  0.00000000
   0.25000000  0.00000000  0.25000000
   0.25000000  0.00000000  0.50000000
   0.25000000  0.00000000  0.75000000
   0.25000000  0.25000000  0.00000000
   0.25000000  0.25000000  0.25000000
   0.25000000  0.25000000  0.50000000
   0.25000000  0.25000000  0.75000000
   0.25000000  0.50000000  0.00000000
   0.25000000  0.50000000  0.25000000
   0.25000000  0.50000000  0.50000000
   0.25000000  0.50000000  0.75000000
   0.25000000  0.75000000  0.00000000
   0.25000000  0.75000000  0.25000000
   0.25000000  0.75000000  0.50000000
   0.25000000  0.75000000  0.75000000
   0.50000000  0.00000000  0.00000000
   0.50000000  0.00000000  0.25000000
   0.50000000  0.00000000  0.50000000
   0.50000000  0.00000000  0.75000000
   0.50000000  0.25000000  0.00000000
   0.50000000  0.25000000  0.25000000
   0.50000000  0.25000000  0.50000000
   0.50000000  0.25000000  0.75000000
   0.50000000  0.50000000  0.00000000
   0.50000000  0.50000000  0.25000000
   0.50000000  0.50000000  0.50000000
   0.50000000  0.50000000  0.75000000
   0.50000000  0.75000000  0.00000000
   0.50000000  0.75000000  0.25000000
   0.50000000  0.75000000  0.50000000
   0.50000000  0.75000000  0.75000000
   0.75000000  0.00000000  0.00000000
   0.75000000  0.00000000  0.25000000
   0.75000000  0.00000000  0.50000000
   0.75000000  0.00000000  0.75000000
   0.75000000  0.25000000  0.00000000
   0.75000000  0.25000000  0.25000000
   0.75000000  0.25000000  0.50000000
   0.75000000  0.25000000  0.75000000
   0.75000000  0.50000000  0.00000000
   0.75000000  0.50000000  0.25000000
   0.75000000  0.50000000  0.50000000
   0.75000000  0.50000000  0.75000000
   0.75000000  0.75000000  0.00000000
   0.75000000  0.75000000  0.25000000
   0.75000000  0.75000000  0.50000000
   0.75000000  0.75000000  0.75000000
 
 position of ions in cartesian coordinates  (Angst):
   0.00000000  0.00000000  0.00000000
   1.73606250  1.73606250  0.00000000
   3.47212500  3.47212500  0.00000000
   5.20818750  5.20818750  0.00000000
   1.73606250  0.00000000  1.73606250
   3.47212500  1.73606250  1.73606250
   5.20818750  3.47212500  1.73606250
   6.94425000  5.20818750  1.73606250
   3.47212500  0.00000000  3.47212500
   5.20818750  1.73606250  3.47212500
   6.94425000  3.47212500  3.47212500
   8.68031250  5.20818750  3.47212500
   5.20818750  0.00000000  5.20818750
   6.94425000  1.73606250  5.20818750
   8.68031250  3.47212500  5.20818750
  10.41637500  5.20818750  5.20818750
   0.00000000  1.73606250  1.73606250
   1.73606250  3.47212500  1.73606250
   3.47212500  5.20818750  1.73606250
   5.20818750  6.94425000  1.73606250
   1.73606250  1.73606250  3.47212500
   3.47212500  3.47212500  3.47212500
   5.20818750  5.20818750  3.47212500
   6.94425000  6.94425000  3.47212500
   3.47212500  1.73606250  5.20818750
   5.20818750  3.47212500  5.20818750
   6.94425000  5.20818750  5.20818750
   8.68031250  6.94425000  5.20818750
   5.20818750  1.73606250  6.94425000
   6.94425000  3.47212500  6.94425000
   8.68031250  5.20818750  6.94425000
  10.41637500  6.94425000  6.94425000
   0.00000000  3.47212500  3.47212500
   1.73606250  5.20818750  3.47212500
   3.47212500  6.94425000  3.47212500
   5.20818750  8.68031250  3.47212500
   1.73606250  3.47212500  5.20818750
   3.47212500  5.20818750  5.20818750
   5.20818750  6.94425000  5.20818750
   6.94425000  8.68031250  5.20818750
   3.47212500  3.47212500  6.94425000
   5.20818750  5.20818750  6.94425000
   6.94425000  6.94425000  6.94425000
   8.68031250  8.68031250  6.94425000
   5.20818750  3.47212500  8.68031250
   6.94425000  5.20818750  8.68031250
   8.68031250  6.94425000  8.68031250
  10.41637500  8.68031250  8.68031250
   0.00000000  5.20818750  5.20818750
   1.73606250  6.94425000  5.20818750
   3.47212500  8.68031250  5.20818750
   5.20818750 10.41637500  5.20818750
   1.73606250  5.20818750  6.94425000
   3.47212500  6.94425000  6.94425000
   5.20818750  8.68031250  6.94425000
   6.94425000 10.41637500  6.94425000
   3.47212500  5.20818750  8.68031250
   5.20818750  6.94425000  8.68031250
   6.94425000  8.68031250  8.68031250
   8.68031250 10.41637500  8.68031250
   5.20818750  5.20818750 10.41637500
   6.94425000  6.94425000 10.41637500
   8.68031250  8.68031250 10.41637500
  10.41637500 10.41637500 10.41637500
 


--------------------------------------------------------------------------------------------------------


 k-point  1 :   0.0000 0.0000 0.0000  plane waves:   10777
 k-point  2 :   0.2000 0.0000 0.0000  plane waves:   10756
 k-point  3 :   0.4000 0.0000 0.0000  plane waves:   10741
 k-point  4 :   0.2000 0.2000 0.0000  plane waves:   10758
 k-point  5 :   0.4000 0.2000 0.0000  plane waves:   10732
 k-point  6 :  -0.4000 0.2000 0.0000  plane waves:   10727
 k-point  7 :  -0.2000 0.2000 0.0000  plane waves:   10735
 k-point  8 :   0.4000 0.4000 0.0000  plane waves:   10722
 k-point  9 :  -0.4000 0.4000 0.0000  plane waves:   10720
 k-point 10 :  -0.4000 0.4000 0.2000  plane waves:   10748

 maximum and minimum number of plane-waves per node :     10777    10720

 maximum number of plane-waves:     10777
 maximum index in each direction: 
   IXMAX=   15   IYMAX=   15   IZMAX=   15
   IXMIN=  -15   IYMIN=  -15   IZMIN=  -15

 NGX is ok and might be reduce to  62
 NGY is ok and might be reduce to  62
 NGZ is ok and might be reduce to  62

 serial   3D FFT for wavefunctions
 parallel 3D FFT for charge:
    minimum data exchange during FFTs selected (reduces bandwidth)


 total amount of memory used by VASP on root node   782322. kBytes
========================================================================

   base      :      30000. kBytes
   nonlr-proj:      53537. kBytes
   fftplans  :      18931. kBytes
   grid      :      59310. kBytes
   one-center:       1990. kBytes
   wavefun   :     618554. kBytes
 
     INWAV:  cpu time    0.0000: real time    0.0000
 Broyden mixing: mesh for mixing (old mesh)
   NGX = 31   NGY = 31   NGZ = 31
  (NGX  =128   NGY  =128   NGZ  =128)
  gives a total of  29791 points

 initial charge density was supplied:
 charge density of overlapping atoms calculated
 number of electron    1024.0000000 magnetization      64.0000000
 keeping initial charge density in first step


--------------------------------------------------------------------------------------------------------


 Maximum index for non-local projection operator         4753
 Maximum index for augmentation-charges         2121 (set IRDMAX)


--------------------------------------------------------------------------------------------------------


 First call to EWALD:  gamma=   0.203
 Maximum number of real-space cells 3x 3x 3
 Maximum number of reciprocal cells 3x 3x 3

 FEWALD executed in parallel
    FEWALD:  cpu time    0.0070: real time    0.0069


----------------------------------------- Iteration    1(   1)  ---------------------------------------


    POTLOK:  cpu time    0.5859: real time    0.6772
    SETDIJ:  cpu time    0.0990: real time    0.0988
     EDDAV:  cpu time  318.8485: real time  319.0895
       DOS:  cpu time    0.0090: real time    0.0089
    --------------------------------------------
      LOOP:  cpu time  319.5424: real time  319.8772

 eigenvalue-minimisations  : 29960
 total energy-change (2. order) : 0.1408896E+05  (-0.5353493E+05)
 number of electron    1024.0000000 magnetization      64.0000000
 augmentation part     1024.0000000 magnetization      64.0000000

 Free energy of the ion-electron system (eV)
  ---------------------------------------------------
  alpha Z        PSCENC =     10302.80525912
  Ewald energy   TEWEN  =   -155767.55935366
  -Hartree energ DENC   =    -60457.14383472
  -exchange      EXHF   =         0.00000000
  -V(xc)+E(xc)   XCENC  =      5728.73356811
  PAW double counting   =    172361.15642774  -181272.45834873
  entropy T*S    EENTRO =        -0.00189465
  eigenvalues    EBANDS =      -819.85868899
  atomic energy  EATOM  =    224013.29143063
  Solvation  Ediel_sol  =         0.00000000
  ---------------------------------------------------
  free energy    TOTEN  =     14088.96456485 eV

  energy without entropy =    14088.96645950  energy(sigma->0) =    14088.96519640


--------------------------------------------------------------------------------------------------------




----------------------------------------- Iteration    1(   2)  ---------------------------------------


     EDDAV:  cpu time  283.9188: real time  283.9770
       DOS:  cpu time    0.0100: real time    0.0096
    --------------------------------------------
      LOOP:  cpu time  283.9288: real time  283.9872

 eigenvalue-minimisations  : 25920
 total energy-change (2. order) :-0.1323192E+05  (-0.1279788E+05)
 number of electron    1024.0000000 magnetization      64.0000000
 augmentation part     1024.0000000 magnetization      64.0000000

 Free energy of the ion-electron system (eV)
  ---------------------------------------------------
  alpha Z        PSCENC =     10302.80525912
  Ewald energy   TEWEN  =   -155767.55935366
  -Hartree energ DENC   =    -60457.14383472
  -exchange      EXHF   =         0.00000000
  -V(xc)+E(xc)   XCENC  =      5728.73356811
  PAW double counting   =    172361.15642774  -181272.45834873
  entropy T*S    EENTRO =        -0.00431081
  eigenvalues    EBANDS =    -14051.77815321
  atomic energy  EATOM  =    224013.29143063
  Solvation  Ediel_sol  =         0.00000000
  ---------------------------------------------------
  free energy    TOTEN  =       857.04268447 eV

  energy without entropy =      857.04699528  energy(sigma->0) =      857.04412141


--------------------------------------------------------------------------------------------------------




----------------------------------------- Iteration    1(   3)  ---------------------------------------


     EDDAV:  cpu time  289.2860: real time  289.4013
       DOS:  cpu time    0.0110: real time    0.0105
    --------------------------------------------
      LOOP:  cpu time  289.2970: real time  289.4124

 eigenvalue-minimisations  : 26592
 total energy-change (2. order) :-0.1225045E+04  (-0.1016852E+04)
 number of electron    1024.0000000 magnetization      64.0000000
 augmentation part     1024.0000000 magnetization      64.0000000

 Free energy of the ion-electron system (eV)
  ---------------------------------------------------
  alpha Z        PSCENC =     10302.80525912
  Ewald energy   TEWEN  =   -155767.55935366
  -Hartree energ DENC   =    -60457.14383472
  -exchange      EXHF   =         0.00000000
  -V(xc)+E(xc)   XCENC  =      5728.73356811
  PAW double counting   =    172361.15642774  -181272.45834873
  entropy T*S    EENTRO =        -0.01819649
  eigenvalues    EBANDS =    -15276.80940569
  atomic energy  EATOM  =    224013.29143063
  Solvation  Ediel_sol  =         0.00000000
  ---------------------------------------------------
  free energy    TOTEN  =      -368.00245369 eV

  energy without entropy =     -367.98425720  energy(sigma->0) =     -367.99638819


--------------------------------------------------------------------------------------------------------




----------------------------------------- Iteration    1(   4)  ---------------------------------------


     EDDAV:  cpu time  297.9617: real time  297.9469
       DOS:  cpu time    0.0110: real time    0.0107
    --------------------------------------------
      LOOP:  cpu time  297.9727: real time  297.9581

 eigenvalue-minimisations  : 27824
 total energy-change (2. order) :-0.6135345E+02  (-0.5999907E+02)
 number of electron    1024.0000000 magnetization      64.0000000
 augmentation part     1024.0000000 magnetization      64.0000000

 Free energy of the ion-electron system (eV)
  ---------------------------------------------------
  alpha Z        PSCENC =     10302.80525912
  Ewald energy   TEWEN  =   -155767.55935366
  -Hartree energ DENC   =    -60457.14383472
  -exchange      EXHF   =         0.00000000
  -V(xc)+E(xc)   XCENC  =      5728.73356811
  PAW double counting   =    172361.15642774  -181272.45834873
  entropy T*S    EENTRO =         0.01670361
  eigenvalues    EBANDS =    -15338.19775250
  atomic energy  EATOM  =    224013.29143063
  Solvation  Ediel_sol  =         0.00000000
  ---------------------------------------------------
  free energy    TOTEN  =      -429.35590039 eV

  energy without entropy =     -429.37260401  energy(sigma->0) =     -429.36146826


--------------------------------------------------------------------------------------------------------




----------------------------------------- Iteration    1(   5)  ---------------------------------------


     EDDAV:  cpu time  291.9886: real time  294.5501
       DOS:  cpu time    0.0110: real time    0.0107
    CHARGE:  cpu time   12.2971: real time   12.3008
    MIXING:  cpu time    0.0110: real time    0.0113
    --------------------------------------------
      LOOP:  cpu time  304.3087: real time  306.8736

 eigenvalue-minimisations  : 27512
 total energy-change (2. order) :-0.8855636E+00  (-0.8850219E+00)
 number of electron    1023.9995839 magnetization      56.7652327
 augmentation part      573.8354812 magnetization      45.7026206

 Broyden mixing:
  rms(total) = 0.67585E+01    rms(broyden)= 0.67483E+01
  rms(prec ) = 0.92176E+01
  weight for this iteration     100.00

 Free energy of the ion-electron system (eV)
  ---------------------------------------------------
  alpha Z        PSCENC =     10302.80525912
  Ewald energy   TEWEN  =   -155767.55935366
  -Hartree energ DENC   =    -60457.14383472
  -exchange      EXHF   =         0.00000000
  -V(xc)+E(xc)   XCENC  =      5728.73356811
  PAW double counting   =    172361.15642774  -181272.45834873
  entropy T*S    EENTRO =         0.01735478
  eigenvalues    EBANDS =    -15339.08396726
  atomic energy  EATOM  =    224013.29143063
  Solvation  Ediel_sol  =         0.00000000
  ---------------------------------------------------
  free energy    TOTEN  =      -430.24146398 eV

  energy without entropy =     -430.25881876  energy(sigma->0) =     -430.24724891


--------------------------------------------------------------------------------------------------------




----------------------------------------- Iteration    1(   6)  ---------------------------------------


    POTLOK:  cpu time    0.5949: real time    0.5951
    SETDIJ:  cpu time    0.1000: real time    0.0992
     EDDAV:  cpu time  292.9085: real time  292.9306
       DOS:  cpu time    0.0090: real time    0.0082
    CHARGE:  cpu time   12.2841: real time   12.2804
    MIXING:  cpu time    0.0110: real time    0.0681
    --------------------------------------------
      LOOP:  cpu time  305.9075: real time  305.9822

 eigenvalue-minimisations  : 27304
 total energy-change (2. order) : 0.3870787E+02  (-0.5598715E+02)
 number of electron    1023.9995409 magnetization      49.5014905
 augmentation part      627.1136254 magnetization      44.2722054

 Broyden mixing:
  rms(total) = 0.45060E+01    rms(broyden)= 0.45047E+01
  rms(prec ) = 0.56591E+01
  weight for this iteration     100.00

 eigenvalues of (default mixing * dielectric matrix)
  average eigenvalue GAMMA=   0.5809
  0.5809

 Free energy of the ion-electron system (eV)
  ---------------------------------------------------
  alpha Z        PSCENC =     10302.80525912
  Ewald energy   TEWEN  =   -155767.55935366
  -Hartree energ DENC   =    -57339.59662420
  -exchange      EXHF   =         0.00000000
  -V(xc)+E(xc)   XCENC  =      5607.87090673
  PAW double counting   =    168507.65809255  -177115.54703577
  entropy T*S    EENTRO =        -0.24754149
  eigenvalues    EBANDS =    -18600.20872783
  atomic energy  EATOM  =    224013.29143063
  Solvation  Ediel_sol  =         0.00000000
  ---------------------------------------------------
  free energy    TOTEN  =      -391.53359393 eV

  energy without entropy =     -391.28605244  energy(sigma->0) =     -391.45108010


--------------------------------------------------------------------------------------------------------




----------------------------------------- Iteration    1(   7)  ---------------------------------------


    POTLOK:  cpu time    0.5879: real time    0.5874
    SETDIJ:  cpu time    0.0990: real time    0.0990
     EDDAV:  cpu time  291.8106: real time  291.8216
       DOS:  cpu time    0.0110: real time    0.0105
    CHARGE:  cpu time   12.3371: real time   12.3364
    MIXING:  cpu time    0.0120: real time    0.0121
    --------------------------------------------
      LOOP:  cpu time  304.8587: real time  304.8677

 eigenvalue-minimisations  : 27192
 total energy-change (2. order) : 0.2395733E+02  (-0.9987051E+01)
 number of electron    1023.9995585 magnetization      42.5719244
 augmentation part      605.5365644 magnetization      34.9355451

 Broyden mixing:
  rms(total) = 0.59159E+00    rms(broyden)= 0.58996E+00
  rms(prec ) = 0.72830E+00
  weight for this iteration     100.00

 eigenvalues of (default mixing * dielectric matrix)
  average eigenvalue GAMMA=   0.8448
  1.0900  0.5996

 Free energy of the ion-electron system (eV)
  ---------------------------------------------------
  alpha Z        PSCENC =     10302.80525912
  Ewald energy   TEWEN  =   -155767.55935366
  -Hartree energ DENC   =    -58385.61711398
  -exchange      EXHF   =         0.00000000
  -V(xc)+E(xc)   XCENC  =      5647.45282629
  PAW double counting   =    171020.39441166  -179899.41909992
  entropy T*S    EENTRO =        -0.08311841
  eigenvalues    EBANDS =    -17298.84150135
  atomic energy  EATOM  =    224013.29143063
  Solvation  Ediel_sol  =         0.00000000
  ---------------------------------------------------
  free energy    TOTEN  =      -367.57625961 eV

  energy without entropy =     -367.49314120  energy(sigma->0) =     -367.54855348


--------------------------------------------------------------------------------------------------------




----------------------------------------- Iteration    1(   8)  ---------------------------------------


    POTLOK:  cpu time    0.5929: real time    0.5930
    SETDIJ:  cpu time    0.1010: real time    0.0994
     EDDAV:  cpu time  295.8500: real time  296.1121
       DOS:  cpu time    0.0110: real time    0.0101
    CHARGE:  cpu time   12.0732: real time   12.0741
    MIXING:  cpu time    0.0130: real time    0.0127
    --------------------------------------------
      LOOP:  cpu time  308.6411: real time  308.9021

 eigenvalue-minimisations  : 27592
 total energy-change (2. order) : 0.2250663E-01  (-0.8599633E-01)
 number of electron    1023.9995583 magnetization      39.4420780
 augmentation part      605.6342424 magnetization      33.0080704

 Broyden mixing:
  rms(total) = 0.26716E+00    rms(broyden)= 0.26703E+00
  rms(prec ) = 0.34895E+00
  weight for this iteration     100.00

 eigenvalues of (default mixing * dielectric matrix)
  average eigenvalue GAMMA=   1.1260
  0.6121  0.9818  1.7841

 Free energy of the ion-electron system (eV)
  ---------------------------------------------------
  alpha Z        PSCENC =     10302.80525912
  Ewald energy   TEWEN  =   -155767.55935366
  -Hartree energ DENC   =    -58230.89938603
  -exchange      EXHF   =         0.00000000
  -V(xc)+E(xc)   XCENC  =      5642.05472509
  PAW double counting   =    171890.11321701  -180873.79890945
  entropy T*S    EENTRO =        -0.08528705
  eigenvalues    EBANDS =    -17343.47544864
  atomic energy  EATOM  =    224013.29143063
  Solvation  Ediel_sol  =         0.00000000
  ---------------------------------------------------
  free energy    TOTEN  =      -367.55375298 eV

  energy without entropy =     -367.46846593  energy(sigma->0) =     -367.52532396


--------------------------------------------------------------------------------------------------------




----------------------------------------- Iteration    1(   9)  ---------------------------------------


    POTLOK:  cpu time    0.5899: real time    0.5968
    SETDIJ:  cpu time    0.1000: real time    0.0996
     EDDAV:  cpu time  296.8289: real time  296.7565
       DOS:  cpu time    0.0110: real time    0.0105
    CHARGE:  cpu time   12.1352: real time   12.1271
    MIXING:  cpu time    0.0130: real time    0.0132
    --------------------------------------------
      LOOP:  cpu time  309.6799: real time  309.6046

 eigenvalue-minimisations  : 28024
 total energy-change (2. order) : 0.7459596E-01  (-0.1793071E-01)
 number of electron    1023.9995579 magnetization      39.6633486
 augmentation part      606.1961492 magnetization      34.1052990

 Broyden mixing:
  rms(total) = 0.91581E-01    rms(broyden)= 0.91555E-01
  rms(prec ) = 0.94964E-01
  weight for this iteration     100.00

 eigenvalues of (default mixing * dielectric matrix)
  average eigenvalue GAMMA=   1.1197
  2.1150  1.1144  0.6246  0.6246

 Free energy of the ion-electron system (eV)
  ---------------------------------------------------
  alpha Z        PSCENC =     10302.80525912
  Ewald energy   TEWEN  =   -155767.55935366
  -Hartree energ DENC   =    -58108.71380147
  -exchange      EXHF   =         0.00000000
  -V(xc)+E(xc)   XCENC  =      5638.00628117
  PAW double counting   =    172504.69810405  -181552.33564736
  entropy T*S    EENTRO =        -0.08798929
  eigenvalues    EBANDS =    -17397.58344021
  atomic energy  EATOM  =    224013.29143063
  Solvation  Ediel_sol  =         0.00000000
  ---------------------------------------------------
  free energy    TOTEN  =      -367.47915702 eV

  energy without entropy =     -367.39116774  energy(sigma->0) =     -367.44982726


--------------------------------------------------------------------------------------------------------




----------------------------------------- Iteration    1(  10)  ---------------------------------------


    POTLOK:  cpu time    0.5879: real time    0.5881
    SETDIJ:  cpu time    0.1010: real time    0.8857
     EDDAV:  cpu time  309.1450: real time  309.1288
       DOS:  cpu time    0.0110: real time    0.0105
    CHARGE:  cpu time   12.3071: real time   12.3025
    MIXING:  cpu time    0.0140: real time    0.0139
    --------------------------------------------
      LOOP:  cpu time  322.1660: real time  322.9304

 eigenvalue-minimisations  : 29376
 total energy-change (2. order) :-0.2368608E-02  (-0.9931679E-03)
 number of electron    1023.9995579 magnetization      40.2102970
 augmentation part      606.1923892 magnetization      34.6387717

 Broyden mixing:
  rms(total) = 0.31263E-01    rms(broyden)= 0.31217E-01
  rms(prec ) = 0.32592E-01
  weight for this iteration     100.00

 eigenvalues of (default mixing * dielectric matrix)
  average eigenvalue GAMMA=   1.2490
  2.2406  1.5745  1.1922  0.6188  0.6188

 Free energy of the ion-electron system (eV)
  ---------------------------------------------------
  alpha Z        PSCENC =     10302.80525912
  Ewald energy   TEWEN  =   -155767.55935366
  -Hartree energ DENC   =    -58098.11922804
  -exchange      EXHF   =         0.00000000
  -V(xc)+E(xc)   XCENC  =      5637.73639001
  PAW double counting   =    172628.96359475  -181684.23741347
  entropy T*S    EENTRO =        -0.08740374
  eigenvalues    EBANDS =    -17400.27480124
  atomic energy  EATOM  =    224013.29143063
  Solvation  Ediel_sol  =         0.00000000
  ---------------------------------------------------
  free energy    TOTEN  =      -367.48152563 eV

  energy without entropy =     -367.39412189  energy(sigma->0) =     -367.45239105


--------------------------------------------------------------------------------------------------------




----------------------------------------- Iteration    1(  11)  ---------------------------------------


    POTLOK:  cpu time    0.5949: real time    0.5958
    SETDIJ:  cpu time    0.1000: real time    0.0993
     EDDAV:  cpu time  298.0977: real time  300.5522
       DOS:  cpu time    0.0110: real time    0.0105
    CHARGE:  cpu time   12.0972: real time   12.0948
    MIXING:  cpu time    0.0150: real time    0.0146
    --------------------------------------------
      LOOP:  cpu time  310.9157: real time  313.3679

 eigenvalue-minimisations  : 27840
 total energy-change (2. order) :-0.3009805E-02  (-0.4119559E-03)
 number of electron    1023.9995579 magnetization      40.2416231
 augmentation part      606.1419336 magnetization      34.5392950

 Broyden mixing:
  rms(total) = 0.10006E-01    rms(broyden)= 0.99611E-02
  rms(prec ) = 0.12738E-01
  weight for this iteration     100.00

 eigenvalues of (default mixing * dielectric matrix)
  average eigenvalue GAMMA=   1.1942
  2.3555  1.6695  1.1868  0.7029  0.6447  0.6059

 Free energy of the ion-electron system (eV)
  ---------------------------------------------------
  alpha Z        PSCENC =     10302.80525912
  Ewald energy   TEWEN  =   -155767.55935366
  -Hartree energ DENC   =    -58097.51200482
  -exchange      EXHF   =         0.00000000
  -V(xc)+E(xc)   XCENC  =      5637.71017899
  PAW double counting   =    172726.75069176  -181784.40552467
  entropy T*S    EENTRO =        -0.08747053
  eigenvalues    EBANDS =    -17398.47774227
  atomic energy  EATOM  =    224013.29143063
  Solvation  Ediel_sol  =         0.00000000
  ---------------------------------------------------
  free energy    TOTEN  =      -367.48453544 eV

  energy without entropy =     -367.39706491  energy(sigma->0) =     -367.45537859


--------------------------------------------------------------------------------------------------------




----------------------------------------- Iteration    1(  12)  ---------------------------------------


    POTLOK:  cpu time    0.5829: real time    0.5832
    SETDIJ:  cpu time    0.1000: real time    0.0996
     EDDAV:  cpu time  297.6368: real time  297.5845
       DOS:  cpu time    0.0110: real time    0.0103
    CHARGE:  cpu time   12.0992: real time   12.0925
    MIXING:  cpu time    0.0160: real time    0.0152
    --------------------------------------------
      LOOP:  cpu time  310.4468: real time  310.3869

 eigenvalue-minimisations  : 27848
 total energy-change (2. order) :-0.8034406E-04  (-0.4553615E-04)
 number of electron    1023.9995579 magnetization      40.2431939
 augmentation part      606.1778582 magnetization      34.5328002

 Broyden mixing:
  rms(total) = 0.24247E-02    rms(broyden)= 0.24072E-02
  rms(prec ) = 0.26117E-02
  weight for this iteration     100.00

 eigenvalues of (default mixing * dielectric matrix)
  average eigenvalue GAMMA=   1.2135
  2.4741  1.7134  1.2894  1.0675  0.6098  0.6317  0.7081

 Free energy of the ion-electron system (eV)
  ---------------------------------------------------
  alpha Z        PSCENC =     10302.80525912
  Ewald energy   TEWEN  =   -155767.55935366
  -Hartree energ DENC   =    -58094.07025496
  -exchange      EXHF   =         0.00000000
  -V(xc)+E(xc)   XCENC  =      5637.58428354
  PAW double counting   =    172757.75549932  -181816.14068824
  entropy T*S    EENTRO =        -0.08803551
  eigenvalues    EBANDS =    -17401.06275603
  atomic energy  EATOM  =    224013.29143063
  Solvation  Ediel_sol  =         0.00000000
  ---------------------------------------------------
  free energy    TOTEN  =      -367.48461578 eV

  energy without entropy =     -367.39658027  energy(sigma->0) =     -367.45527061


--------------------------------------------------------------------------------------------------------




----------------------------------------- Iteration    1(  13)  ---------------------------------------


    POTLOK:  cpu time    0.5879: real time    0.5879
    SETDIJ:  cpu time    0.1000: real time    0.0992
     EDDAV:  cpu time  258.3897: real time  258.4220
       DOS:  cpu time    0.0110: real time    0.0105
    CHARGE:  cpu time   12.1761: real time   12.1678
    MIXING:  cpu time    0.0160: real time    0.0161
    --------------------------------------------
      LOOP:  cpu time  271.2818: real time  271.3043

 eigenvalue-minimisations  : 23080
 total energy-change (2. order) :-0.1307303E-04  (-0.2179140E-05)
 number of electron    1023.9995579 magnetization      40.2423316
 augmentation part      606.1829097 magnetization      34.5299269

 Broyden mixing:
  rms(total) = 0.16333E-02    rms(broyden)= 0.16330E-02
  rms(prec ) = 0.22183E-02
  weight for this iteration     100.00

 eigenvalues of (default mixing * dielectric matrix)
  average eigenvalue GAMMA=   1.2507
  2.5103  1.8932  1.5579  1.2334  0.6186  0.6186  0.7868  0.7868

 Free energy of the ion-electron system (eV)
  ---------------------------------------------------
  alpha Z        PSCENC =     10302.80525912
  Ewald energy   TEWEN  =   -155767.55935366
  -Hartree energ DENC   =    -58093.78924791
  -exchange      EXHF   =         0.00000000
  -V(xc)+E(xc)   XCENC  =      5637.57254467
  PAW double counting   =    172769.88558054  -181828.15545475
  entropy T*S    EENTRO =        -0.08808439
  eigenvalues    EBANDS =    -17401.44730309
  atomic energy  EATOM  =    224013.29143063
  Solvation  Ediel_sol  =         0.00000000
  ---------------------------------------------------
  free energy    TOTEN  =      -367.48462885 eV

  energy without entropy =     -367.39654446  energy(sigma->0) =     -367.45526739


--------------------------------------------------------------------------------------------------------




----------------------------------------- Iteration    1(  14)  ---------------------------------------


    POTLOK:  cpu time    0.5909: real time    0.5917
    SETDIJ:  cpu time    0.1010: real time    0.0998
     EDDAV:  cpu time  249.9050: real time  249.8140
       DOS:  cpu time    0.0100: real time    0.0103
    CHARGE:  cpu time   12.0902: real time   12.0997
    MIXING:  cpu time    0.0170: real time    0.0169
    --------------------------------------------
      LOOP:  cpu time  262.7151: real time  262.6332

 eigenvalue-minimisations  : 22040
 total energy-change (2. order) : 0.2544999E-04  (-0.6766187E-06)
 number of electron    1023.9995579 magnetization      40.2398589
 augmentation part      606.1781421 magnetization      34.5282688

 Broyden mixing:
  rms(total) = 0.47734E-03    rms(broyden)= 0.47655E-03
  rms(prec ) = 0.53560E-03
  weight for this iteration     100.00

 eigenvalues of (default mixing * dielectric matrix)
  average eigenvalue GAMMA=   1.2771
  2.5651  2.4067  1.6840  1.2307  0.8969  0.8338  0.6162  0.6232  0.6375

 Free energy of the ion-electron system (eV)
  ---------------------------------------------------
  alpha Z        PSCENC =     10302.80525912
  Ewald energy   TEWEN  =   -155767.55935366
  -Hartree energ DENC   =    -58094.50381667
  -exchange      EXHF   =         0.00000000
  -V(xc)+E(xc)   XCENC  =      5637.59909203
  PAW double counting   =    172777.03918958  -181834.94015494
  entropy T*S    EENTRO =        -0.08803178
  eigenvalues    EBANDS =    -17401.12821771
  atomic energy  EATOM  =    224013.29143063
  Solvation  Ediel_sol  =         0.00000000
  ---------------------------------------------------
  free energy    TOTEN  =      -367.48460340 eV

  energy without entropy =     -367.39657163  energy(sigma->0) =     -367.45525948


--------------------------------------------------------------------------------------------------------




----------------------------------------- Iteration    1(  15)  ---------------------------------------


    POTLOK:  cpu time    0.5879: real time    0.5882
    SETDIJ:  cpu time    0.1000: real time    0.0994
     EDDAV:  cpu time  180.6205: real time  180.5404
       DOS:  cpu time    0.0100: real time    0.0101
    CHARGE:  cpu time   12.1302: real time   12.1199
    MIXING:  cpu time    0.0180: real time    0.0178
    --------------------------------------------
      LOOP:  cpu time  193.4676: real time  193.3765

 eigenvalue-minimisations  : 13808
 total energy-change (2. order) : 0.6332499E-05  (-0.4715472E-07)
 number of electron    1023.9995579 magnetization      40.2395867
 augmentation part      606.1771848 magnetization      34.5281973

 Broyden mixing:
  rms(total) = 0.81028E-04    rms(broyden)= 0.79475E-04
  rms(prec ) = 0.97889E-04
  weight for this iteration     100.00

 eigenvalues of (default mixing * dielectric matrix)
  average eigenvalue GAMMA=   1.2542
  2.6241  2.4763  1.7006  1.2261  1.0401  0.8432  0.7522  0.6128  0.6330  0.6330

 Free energy of the ion-electron system (eV)
  ---------------------------------------------------
  alpha Z        PSCENC =     10302.80525912
  Ewald energy   TEWEN  =   -155767.55935366
  -Hartree energ DENC   =    -58094.67973721
  -exchange      EXHF   =         0.00000000
  -V(xc)+E(xc)   XCENC  =      5637.60510302
  PAW double counting   =    172778.33951412  -181836.13837552
  entropy T*S    EENTRO =        -0.08801996
  eigenvalues    EBANDS =    -17401.06041760
  atomic energy  EATOM  =    224013.29143063
  Solvation  Ediel_sol  =         0.00000000
  ---------------------------------------------------
  free energy    TOTEN  =      -367.48459707 eV

  energy without entropy =     -367.39657711  energy(sigma->0) =     -367.45525708


--------------------------------------------------------------------------------------------------------




----------------------------------------- Iteration    1(  16)  ---------------------------------------


    POTLOK:  cpu time    0.5879: real time    0.5876
    SETDIJ:  cpu time    0.1000: real time    0.0994
     EDDAV:  cpu time  179.2647: real time  179.3151
       DOS:  cpu time    0.0100: real time    0.0105
    --------------------------------------------
      LOOP:  cpu time  179.9626: real time  180.0133

 eigenvalue-minimisations  : 13600
 total energy-change (2. order) :-0.4495087E-06  (-0.9945183E-08)
 number of electron    1023.9995579 magnetization      40.2395867
 augmentation part      606.1771848 magnetization      34.5281973

 Free energy of the ion-electron system (eV)
  ---------------------------------------------------
  alpha Z        PSCENC =     10302.80525912
  Ewald energy   TEWEN  =   -155767.55935366
  -Hartree energ DENC   =    -58094.66582215
  -exchange      EXHF   =         0.00000000
  -V(xc)+E(xc)   XCENC  =      5637.60458106
  PAW double counting   =    172778.19696700  -181835.99730806
  entropy T*S    EENTRO =        -0.08802028
  eigenvalues    EBANDS =    -17401.07233117
  atomic energy  EATOM  =    224013.29143063
  Solvation  Ediel_sol  =         0.00000000
  ---------------------------------------------------
  free energy    TOTEN  =      -367.48459752 eV

  energy without entropy =     -367.39657724  energy(sigma->0) =     -367.45525743


--------------------------------------------------------------------------------------------------------




 average (electrostatic) potential at core
  the test charge radii are     0.8614
  (the norm of the test charge is              1.0000)
       1 -78.9498       2 -78.9498       3 -78.9498       4 -78.9498       5 -78.9498
       6 -78.9498       7 -78.9498       8 -78.9498       9 -78.9498      10 -78.9498
      11 -78.9498      12 -78.9498      13 -78.9498      14 -78.9498      15 -78.9498
      16 -78.9498      17 -78.9498      18 -78.9498      19 -78.9498      20 -78.9498
      21 -78.9498      22 -78.9498      23 -78.9498      24 -78.9498      25 -78.9498
      26 -78.9498      27 -78.9498      28 -78.9498      29 -78.9498      30 -78.9498
      31 -78.9498      32 -78.9498      33 -78.9498      34 -78.9498      35 -78.9498
      36 -78.9498      37 -78.9498      38 -78.9498      39 -78.9498      40 -78.9498
      41 -78.9498      42 -78.9498      43 -78.9498      44 -78.9498      45 -78.9498
      46 -78.9498      47 -78.9498      48 -78.9498      49 -78.9498      50 -78.9498
      51 -78.9498      52 -78.9498      53 -78.9498      54 -78.9498      55 -78.9498
      56 -78.9498      57 -78.9498      58 -78.9498      59 -78.9498      60 -78.9498
      61 -78.9498      62 -78.9498      63 -78.9498      64 -78.9498
 
 
 
 E-fermi :   8.3741     XC(G=0): -14.0302     alpha+bet :-15.4723


 spin component 1

 k-point     1 :       0.0000    0.0000    0.0000
  band No.  band energies     occupation 
      1     -55.7623      1.00000
      2     -55.7623      1.00000
      3     -55.7623      1.00000
      4     -55.7623      1.00000
      5     -55.7495      1.00000
      6     -55.7495      1.00000
      7     -55.7495      1.00000
      8     -55.7141      1.00000
      9     -55.7141      1.00000
     10     -55.7141      1.00000
     11     -55.7141      1.00000
     12     -55.7141      1.00000
     13     -55.7141      1.00000
     14     -55.7141      1.00000
     15     -55.7141      1.00000
     16     -55.7141      1.00000
     17     -55.7141      1.00000
     18     -55.7141      1.00000
     19     -55.7141      1.00000
     20     -55.7141      1.00000
     21     -55.7141      1.00000
     22     -55.7141      1.00000
     23     -55.7141      1.00000
     24     -55.7141      1.00000
     25     -55.7141      1.00000
     26     -55.7141      1.00000
     27     -55.7141      1.00000
     28     -55.7141      1.00000
     29     -55.7141      1.00000
     30     -55.7141      1.00000
     31     -55.7141      1.00000
     32     -55.6814      1.00000
     33     -55.6814      1.00000
     34     -55.6814      1.00000
     35     -55.6814      1.00000
     36     -55.6814      1.00000
     37     -55.6814      1.00000
     38     -55.6814      1.00000
     39     -55.6814      1.00000
     40     -55.6814      1.00000
     41     -55.6814      1.00000
     42     -55.6814      1.00000
     43     -55.6814      1.00000
     44     -55.6758      1.00000
     45     -55.6758      1.00000
     46     -55.6758      1.00000
     47     -55.6758      1.00000
     48     -55.6758      1.00000
     49     -55.6758      1.00000
     50     -55.6758      1.00000
     51     -55.6758      1.00000
     52     -55.6758      1.00000
     53     -55.6758      1.00000
     54     -55.6758      1.00000
     55     -55.6758      1.00000
     56     -55.6259      1.00000
     57     -55.6259      1.00000
     58     -55.6259      1.00000
     59     -55.6259      1.00000
     60     -55.6259      1.00000
     61     -55.6259      1.00000
     62     -55.6259      1.00000
     63     -55.6259      1.00000
     64     -55.6221      1.00000
     65     -55.6221      1.00000
     66     -55.6221      1.00000
     67     -55.6221      1.00000
     68     -55.6221      1.00000
     69     -55.6221      1.00000
     70     -55.6097      1.00000
     71     -55.6097      1.00000
     72     -55.6097      1.00000
     73     -55.6097      1.00000
     74     -55.6097      1.00000
     75     -55.6097      1.00000
     76     -55.6096      1.00000
     77     -55.6096      1.00000
     78     -55.6096      1.00000
     79     -55.6096      1.00000
     80     -55.6096      1.00000
     81     -55.6096      1.00000
     82     -55.6096      1.00000
     83     -55.6096      1.00000
     84     -55.6096      1.00000
     85     -55.6096      1.00000
     86     -55.6096      1.00000
     87     -55.6096      1.00000
     88     -55.6096      1.00000
     89     -55.6096      1.00000
     90     -55.6096      1.00000
     91     -55.6096      1.00000
     92     -55.6096      1.00000
     93     -55.6096      1.00000
     94     -55.6094      1.00000
     95     -55.6094      1.00000
     96     -55.6094      1.00000
     97     -55.6094      1.00000
     98     -55.6094      1.00000
     99     -55.6094      1.00000
    100     -55.6094      1.00000
    101     -55.6094      1.00000
    102     -55.6094      1.00000
    103     -55.6094      1.00000
    104     -55.6094      1.00000
    105     -55.6094      1.00000
    106     -55.6068      1.00000
    107     -55.6068      1.00000
    108     -55.6068      1.00000
    109     -55.6068      1.00000
    110     -55.6068      1.00000
    111     -55.6068      1.00000
    112     -55.5970      1.00000
    113     -55.5970      1.00000
    114     -55.5970      1.00000
    115     -55.5970      1.00000
    116     -55.5970      1.00000
    117     -55.5970      1.00000
    118     -55.5748      1.00000
    119     -55.5748      1.00000
[...]
      1.736063  3.472125  1.736063     0.123764    0.017522    0.000766  
      3.472125  5.208188  1.736063     0.123764    0.017522    0.000766  
      5.208188  6.944250  1.736063     0.123764    0.017522    0.000766  
      1.736063  1.736063  3.472125     0.123764    0.017522    0.000766  
      3.472125  3.472125  3.472125     0.123764    0.017522    0.000766  
      5.208188  5.208188  3.472125     0.123764    0.017522    0.000766  
      6.944250  6.944250  3.472125     0.123764    0.017522    0.000766  
      3.472125  1.736063  5.208188     0.123764    0.017522    0.000766  
      5.208188  3.472125  5.208188     0.123764    0.017522    0.000766  
      6.944250  5.208188  5.208188     0.123764    0.017522    0.000766  
      8.680312  6.944250  5.208188     0.123764    0.017522    0.000766  
      5.208188  1.736063  6.944250     0.123764    0.017522    0.000766  
      6.944250  3.472125  6.944250     0.123764    0.017522    0.000766  
      8.680312  5.208188  6.944250     0.123764    0.017522    0.000766  
     10.416375  6.944250  6.944250     0.123764    0.017522    0.000766  
      0.000000  3.472125  3.472125     0.123764    0.017522    0.000766  
      1.736063  5.208188  3.472125     0.123764    0.017522    0.000766  
      3.472125  6.944250  3.472125     0.123764    0.017522    0.000766  
      5.208188  8.680312  3.472125     0.123764    0.017522    0.000766  
      1.736063  3.472125  5.208188     0.123764    0.017522    0.000766  
      3.472125  5.208188  5.208188     0.123764    0.017522    0.000766  
      5.208188  6.944250  5.208188     0.123764    0.017522    0.000766  
      6.944250  8.680312  5.208188     0.123764    0.017522    0.000766  
      3.472125  3.472125  6.944250     0.123764    0.017522    0.000766  
      5.208188  5.208188  6.944250     0.123764    0.017522    0.000766  
      6.944250  6.944250  6.944250     0.123764    0.017522    0.000766  
      8.680312  8.680312  6.944250     0.123764    0.017522    0.000766  
      5.208188  3.472125  8.680312     0.123764    0.017522    0.000766  
      6.944250  5.208188  8.680312     0.123764    0.017522    0.000766  
      8.680312  6.944250  8.680312     0.123764    0.017522    0.000766  
     10.416375  8.680312  8.680312     0.123764    0.017522    0.000766  
      0.000000  5.208188  5.208188     0.123764    0.017522    0.000766  
      1.736063  6.944250  5.208188     0.123764    0.017522    0.000766  
      3.472125  8.680312  5.208188     0.123764    0.017522    0.000766  
      5.208188 10.416375  5.208188     0.123764    0.017522    0.000766  
      1.736063  5.208188  6.944250     0.123764    0.017522    0.000766  
      3.472125  6.944250  6.944250     0.123764    0.017522    0.000766  
      5.208188  8.680312  6.944250     0.123764    0.017522    0.000766  
      6.944250 10.416375  6.944250     0.123764    0.017522    0.000766  
      3.472125  5.208188  8.680312     0.123764    0.017522    0.000766  
      5.208188  6.944250  8.680312     0.123764    0.017522    0.000766  
      6.944250  8.680312  8.680312     0.123764    0.017522    0.000766  
      8.680312 10.416375  8.680312     0.123764    0.017522    0.000766  
      5.208188  5.208188 10.416375     0.123764    0.017522    0.000766  
      6.944250  6.944250 10.416375     0.123764    0.017522    0.000766  
      8.680312  8.680312 10.416375     0.123764    0.017522    0.000766  
     10.416375 10.416375 10.416375     0.123764    0.017522    0.000766  
 
 192 f  =    0.000001 THz     0.000008 2PiTHz    0.000043 cm-1     0.000005 meV
             X         Y         Z           dx          dy          dz
      0.000000  0.000000  0.000000    -0.001347    0.004051    0.124927  
      1.736063  1.736063  0.000000    -0.001347    0.004051    0.124927  
      3.472125  3.472125  0.000000    -0.001347    0.004051    0.124927  
      5.208188  5.208188  0.000000    -0.001347    0.004051    0.124927  
      1.736063  0.000000  1.736063    -0.001347    0.004051    0.124927  
      3.472125  1.736063  1.736063    -0.001347    0.004051    0.124927  
      5.208188  3.472125  1.736063    -0.001347    0.004051    0.124927  
      6.944250  5.208188  1.736063    -0.001347    0.004051    0.124927  
      3.472125  0.000000  3.472125    -0.001347    0.004051    0.124927  
      5.208188  1.736063  3.472125    -0.001347    0.004051    0.124927  
      6.944250  3.472125  3.472125    -0.001347    0.004051    0.124927  
      8.680312  5.208188  3.472125    -0.001347    0.004051    0.124927  
      5.208188  0.000000  5.208188    -0.001347    0.004051    0.124927  
      6.944250  1.736063  5.208188    -0.001347    0.004051    0.124927  
      8.680312  3.472125  5.208188    -0.001347    0.004051    0.124927  
     10.416375  5.208188  5.208188    -0.001347    0.004051    0.124927  
      0.000000  1.736063  1.736063    -0.001347    0.004051    0.124927  
      1.736063  3.472125  1.736063    -0.001347    0.004051    0.124927  
      3.472125  5.208188  1.736063    -0.001347    0.004051    0.124927  
      5.208188  6.944250  1.736063    -0.001347    0.004051    0.124927  
      1.736063  1.736063  3.472125    -0.001347    0.004051    0.124927  
      3.472125  3.472125  3.472125    -0.001347    0.004051    0.124927  
      5.208188  5.208188  3.472125    -0.001347    0.004051    0.124927  
      6.944250  6.944250  3.472125    -0.001347    0.004051    0.124927  
      3.472125  1.736063  5.208188    -0.001347    0.004051    0.124927  
      5.208188  3.472125  5.208188    -0.001347    0.004051    0.124927  
      6.944250  5.208188  5.208188    -0.001347    0.004051    0.124927  
      8.680312  6.944250  5.208188    -0.001347    0.004051    0.124927  
      5.208188  1.736063  6.944250    -0.001347    0.004051    0.124927  
      6.944250  3.472125  6.944250    -0.001347    0.004051    0.124927  
      8.680312  5.208188  6.944250    -0.001347    0.004051    0.124927  
     10.416375  6.944250  6.944250    -0.001347    0.004051    0.124927  
      0.000000  3.472125  3.472125    -0.001347    0.004051    0.124927  
      1.736063  5.208188  3.472125    -0.001347    0.004051    0.124927  
      3.472125  6.944250  3.472125    -0.001347    0.004051    0.124927  
      5.208188  8.680312  3.472125    -0.001347    0.004051    0.124927  
      1.736063  3.472125  5.208188    -0.001347    0.004051    0.124927  
      3.472125  5.208188  5.208188    -0.001347    0.004051    0.124927  
      5.208188  6.944250  5.208188    -0.001347    0.004051    0.124927  
      6.944250  8.680312  5.208188    -0.001347    0.004051    0.124927  
      3.472125  3.472125  6.944250    -0.001347    0.004051    0.124927  
      5.208188  5.208188  6.944250    -0.001347    0.004051    0.124927  
      6.944250  6.944250  6.944250    -0.001347    0.004051    0.124927  
      8.680312  8.680312  6.944250    -0.001347    0.004051    0.124927  
      5.208188  3.472125  8.680312    -0.001347    0.004051    0.124927  
      6.944250  5.208188  8.680312    -0.001347    0.004051    0.124927  
      8.680312  6.944250  8.680312    -0.001347    0.004051    0.124927  
     10.416375  8.680312  8.680312    -0.001347    0.004051    0.124927  
      0.000000  5.208188  5.208188    -0.001347    0.004051    0.124927  
      1.736063  6.944250  5.208188    -0.001347    0.004051    0.124927  
      3.472125  8.680312  5.208188    -0.001347    0.004051    0.124927  
      5.208188 10.416375  5.208188    -0.001347    0.004051    0.124927  
      1.736063  5.208188  6.944250    -0.001347    0.004051    0.124927  
      3.472125  6.944250  6.944250    -0.001347    0.004051    0.124927  
      5.208188  8.680312  6.944250    -0.001347    0.004051    0.124927  
      6.944250 10.416375  6.944250    -0.001347    0.004051    0.124927  
      3.472125  5.208188  8.680312    -0.001347    0.004051    0.124927  
      5.208188  6.944250  8.680312    -0.001347    0.004051    0.124927  
      6.944250  8.680312  8.680312    -0.001347    0.004051    0.124927  
      8.680312 10.416375  8.680312    -0.001347    0.004051    0.124927  
      5.208188  5.208188 10.416375    -0.001347    0.004051    0.124927  
      6.944250  6.944250 10.416375    -0.001347    0.004051    0.124927  
      8.680312  8.680312 10.416375    -0.001347    0.004051    0.124927  
     10.416375 10.416375 10.416375    -0.001347    0.004051    0.124927  
 

 ELASTIC MODULI CONTR FROM IONIC RELAXATION (kBar)
 Direction    XX          YY          ZZ          XY          YZ          ZX
 --------------------------------------------------------------------------------
 XX           0.0000      0.0000     -0.0000      0.0000     -0.0000      0.0000
 YY           0.0000      0.0000      0.0000      0.0000      0.0000     -0.0000
 ZZ          -0.0000     -0.0000      0.0000      0.0000     -0.0000     -0.0000
 XY          -0.0000      0.0000     -0.0000      0.0000     -0.0000      0.0000
 YZ          -0.0000      0.0000     -0.0000     -0.0000     -0.0000     -0.0000
 ZX           0.0000     -0.0000      0.0000     -0.0000      0.0000     -0.0000
 --------------------------------------------------------------------------------



--------------------------------------------------------------------------------------------------------


  LATTYP: Found a face centered cubic cell.
 ALAT       =    13.8885000000
  
  Lattice vectors:
  
 A1 = (   0.0000000000,   6.9442500000,   6.9442500000)
 A2 = (   6.9442500000,   0.0000000000,   6.9442500000)
 A3 = (   6.9442500000,   6.9442500000,   0.0000000000)


Analysis of symmetry for initial positions (statically):
=====================================================================
 Subroutine PRICEL returns following result:
 
  LATTYP: Found a face centered cubic cell.
 ALAT       =     3.4721250000
  
  Lattice vectors:
  
 A1 = (   0.0000000000,   1.7360625000,   1.7360625000)
 A2 = (   1.7360625000,   0.0000000000,   1.7360625000)
 A3 = (   1.7360625000,   1.7360625000,   0.0000000000)
 
  64 primitive cells build up your supercell.
 

 Routine SETGRP: Setting up the symmetry group for a 
 face centered cubic supercell.


 Subroutine GETGRP returns: Found 48 space group operations
 (whereof 48 operations were pure point group operations)
 out of a pool of 48 trial point group operations.


The static configuration has the point symmetry O_h .


Analysis of symmetry for dynamics (positions and initial velocities):
=====================================================================
 Subroutine PRICEL returns following result:
 
  LATTYP: Found a face centered cubic cell.
 ALAT       =     3.4721250000
  
  Lattice vectors:
  
 A1 = (   0.0000000000,   1.7360625000,   1.7360625000)
 A2 = (   1.7360625000,   0.0000000000,   1.7360625000)
 A3 = (   1.7360625000,   1.7360625000,   0.0000000000)
 
  64 primitive cells build up your supercell.
 

 Routine SETGRP: Setting up the symmetry group for a 
 face centered cubic supercell.


 Subroutine GETGRP returns: Found 48 space group operations
 (whereof 48 operations were pure point group operations)
 out of a pool of 48 trial point group operations.


The dynamic configuration has the point symmetry O_h .


Analysis of structural, dynamic, and magnetic symmetry:
=====================================================================
 Subroutine PRICEL returns following result:
 
  LATTYP: Found a face centered cubic cell.
 ALAT       =     3.4721250000
  
  Lattice vectors:
  
 A1 = (   0.0000000000,   1.7360625000,   1.7360625000)
 A2 = (   1.7360625000,   0.0000000000,   1.7360625000)
 A3 = (   1.7360625000,   1.7360625000,   0.0000000000)
 
  64 primitive cells build up your supercell.
 

 Routine SETGRP: Setting up the symmetry group for a 
 face centered cubic supercell.


 Subroutine GETGRP returns: Found 48 space group operations
 (whereof 48 operations were pure point group operations)
 out of a pool of 48 trial point group operations.


The magnetic configuration has the point symmetry O_h .


 Subroutine INISYM returns: Found 48 space group operations
 (whereof 48 operations are pure point group operations),
 and found    64 'primitive' translations

 
 KPOINTS: Zr 15x15x15                             

Automatic generation of k-mesh.
Space group operators:
 irot       det(A)        alpha          n_x          n_y          n_z        tau_x        tau_y        tau_z
    1     1.000000     0.000001     1.000000     0.000000     0.000000     0.000000     0.000000     0.000000
    2    -1.000000     0.000001     1.000000     0.000000     0.000000     0.000000     0.000000     0.000000
    3     1.000000   120.000000    -0.577350    -0.577350    -0.577350     0.000000     0.000000     0.000000
    4    -1.000000   120.000000    -0.577350    -0.577350    -0.577350     0.000000     0.000000     0.000000
    5     1.000000   120.000000     0.577350     0.577350     0.577350     0.000000     0.000000     0.000000
    6    -1.000000   120.000000     0.577350     0.577350     0.577350     0.000000     0.000000     0.000000
    7     1.000000    90.000000     0.000000     0.000000    -1.000000     0.000000     0.000000     0.000000
    8    -1.000000    90.000000     0.000000     0.000000    -1.000000     0.000000     0.000000     0.000000
    9     1.000000   180.000000     0.000000     0.707107     0.707107     0.000000     0.000000     0.000000
   10    -1.000000   180.000000     0.000000     0.707107     0.707107     0.000000     0.000000     0.000000
   11     1.000000    90.000000     0.000000     1.000000     0.000000     0.000000     0.000000     0.000000
   12    -1.000000    90.000000     0.000000     1.000000     0.000000     0.000000     0.000000     0.000000
   13     1.000000   180.000000     0.000000     0.000000     1.000000     0.000000     0.000000     0.000000
   14    -1.000000   180.000000     0.000000     0.000000     1.000000     0.000000     0.000000     0.000000
   15     1.000000   120.000000    -0.577350     0.577350     0.577350     0.000000     0.000000     0.000000
   16    -1.000000   120.000000    -0.577350     0.577350     0.577350     0.000000     0.000000     0.000000
   17     1.000000   120.000000    -0.577350     0.577350    -0.577350     0.000000     0.000000     0.000000
   18    -1.000000   120.000000    -0.577350     0.577350    -0.577350     0.000000     0.000000     0.000000
   19     1.000000    90.000000     0.000000     0.000000     1.000000     0.000000     0.000000     0.000000
   20    -1.000000    90.000000     0.000000     0.000000     1.000000     0.000000     0.000000     0.000000
   21     1.000000    90.000000    -1.000000     0.000000     0.000000     0.000000     0.000000     0.000000
   22    -1.000000    90.000000    -1.000000     0.000000     0.000000     0.000000     0.000000     0.000000
   23     1.000000   180.000000     0.707107     0.000000     0.707107     0.000000     0.000000     0.000000
   24    -1.000000   180.000000     0.707107     0.000000     0.707107     0.000000     0.000000     0.000000
   25     1.000000   120.000000     0.577350    -0.577350     0.577350     0.000000     0.000000     0.000000
   26    -1.000000   120.000000     0.577350    -0.577350     0.577350     0.000000     0.000000     0.000000
   27     1.000000   120.000000    -0.577350    -0.577350     0.577350     0.000000     0.000000     0.000000
   28    -1.000000   120.000000    -0.577350    -0.577350     0.577350     0.000000     0.000000     0.000000
   29     1.000000   180.000000     1.000000     0.000000     0.000000     0.000000     0.000000     0.000000
   30    -1.000000   180.000000     1.000000     0.000000     0.000000     0.000000     0.000000     0.000000
   31     1.000000    90.000000     0.000000    -1.000000     0.000000     0.000000     0.000000     0.000000
   32    -1.000000    90.000000     0.000000    -1.000000     0.000000     0.000000     0.000000     0.000000
   33     1.000000   180.000000     0.707107     0.707107     0.000000     0.000000     0.000000     0.000000
   34    -1.000000   180.000000     0.707107     0.707107     0.000000     0.000000     0.000000     0.000000
   35     1.000000    90.000000     1.000000     0.000000     0.000000     0.000000     0.000000     0.000000
   36    -1.000000    90.000000     1.000000     0.000000     0.000000     0.000000     0.000000     0.000000
   37     1.000000   120.000000     0.577350    -0.577350    -0.577350     0.000000     0.000000     0.000000
   38    -1.000000   120.000000     0.577350    -0.577350    -0.577350     0.000000     0.000000     0.000000
   39     1.000000   180.000000     0.000000     1.000000     0.000000     0.000000     0.000000     0.000000
   40    -1.000000   180.000000     0.000000     1.000000     0.000000     0.000000     0.000000     0.000000
   41     1.000000   120.000000     0.577350     0.577350    -0.577350     0.000000     0.000000     0.000000
   42    -1.000000   120.000000     0.577350     0.577350    -0.577350     0.000000     0.000000     0.000000
   43     1.000000   180.000000     0.000000    -0.707107     0.707107     0.000000     0.000000     0.000000
   44    -1.000000   180.000000     0.000000    -0.707107     0.707107     0.000000     0.000000     0.000000
   45     1.000000   180.000000     0.707107    -0.707107     0.000000     0.000000     0.000000     0.000000
   46    -1.000000   180.000000     0.707107    -0.707107     0.000000     0.000000     0.000000     0.000000
   47     1.000000   180.000000     0.707107     0.000000    -0.707107     0.000000     0.000000     0.000000
   48    -1.000000   180.000000     0.707107     0.000000    -0.707107     0.000000     0.000000     0.000000
 
 Subroutine IBZKPT returns following result:
 ===========================================
 
 Found     10 irreducible k-points:
 
 Following reciprocal coordinates:
            Coordinates               Weight
  0.000000  0.000000  0.000000      1.000000
  0.200000  0.000000  0.000000      8.000000
  0.400000  0.000000  0.000000      8.000000
  0.200000  0.200000  0.000000      6.000000
  0.400000  0.200000  0.000000     24.000000
 -0.400000  0.200000  0.000000     24.000000
 -0.200000  0.200000  0.000000     12.000000
  0.400000  0.400000  0.000000      6.000000
 -0.400000  0.400000  0.000000     12.000000
 -0.400000  0.400000  0.200000     24.000000
 
 Following cartesian coordinates:
            Coordinates               Weight
  0.000000  0.000000  0.000000      1.000000
 -0.014400  0.014400  0.014400      8.000000
 -0.028801  0.028801  0.028801      8.000000
  0.000000  0.000000  0.028801      6.000000
 -0.014400  0.014400  0.043201     24.000000
  0.043201 -0.043201 -0.014400     24.000000
  0.028801 -0.028801  0.000000     12.000000
  0.000000  0.000000  0.057602      6.000000
  0.057602 -0.057602  0.000000     12.000000
  0.072002 -0.043201 -0.014400     24.000000
 
 writing wavefunctions
     LOOP+:  cpu time10142.5251: real time10309.9052
    4ORBIT:  cpu time    0.0000: real time    0.0000

 total amount of memory used by VASP on root node   782322. kBytes
========================================================================

   base      :      30000. kBytes
   nonlr-proj:      53537. kBytes
   fftplans  :      18931. kBytes
   grid      :      59310. kBytes
   one-center:       1990. kBytes
   wavefun   :     618554. kBytes
 
  
  
 General timing and accounting informations for this job:
 ========================================================
  
                  Total CPU time used (sec):    23938.684
                            User time (sec):    23744.453
                          System time (sec):      194.230
                         Elapsed time (sec):    24145.706
  
                   Maximum memory used (kb):     2396012.
                   Average memory used (kb):           0.
  
                          Minor page faults:       185639
                          Major page faults:           49
                 Voluntary context switches:         1624
