       N       E                     dE             d eps       ncg     rms          rms(c)
DAV:   1     0.112487316499E+03    0.11249E+03   -0.94340E+03 17280   0.128E+03
DAV:   2    -0.455862478756E+01   -0.11705E+03   -0.10941E+03 17896   0.345E+02
DAV:   3    -0.673257057283E+01   -0.21739E+01   -0.21677E+01 20016   0.538E+01
DAV:   4    -0.674522008119E+01   -0.12650E-01   -0.12648E-01 19480   0.387E+00
DAV:   5    -0.674539250585E+01   -0.17242E-03   -0.17246E-03 20648   0.429E-01    0.841E+00
DAV:   6    -0.617215213427E+01    0.57324E+00   -0.33998E+00 19968   0.462E+01    0.562E+00
DAV:   7    -0.578329734580E+01    0.38885E+00   -0.72233E-01 19216   0.198E+01    0.795E-01
DAV:   8    -0.577184383088E+01    0.11454E-01   -0.85741E-03 22392   0.965E-01    0.270E-01
DAV:   9    -0.577078425506E+01    0.10596E-02   -0.47374E-04 24968   0.315E-01    0.521E-02
DAV:  10    -0.577079998482E+01   -0.15730E-04   -0.24430E-05 18632   0.645E-02    0.177E-02
DAV:  11    -0.577080702797E+01   -0.70432E-05   -0.22858E-06 18048   0.297E-02    0.662E-03
DAV:  12    -0.577080422979E+01    0.27982E-05   -0.51400E-07 12472   0.101E-02    0.146E-03
DAV:  13    -0.577080478672E+01   -0.55693E-06   -0.51666E-08  9216   0.298E-03
   1 F= -.57708048E+01 E0= -.57708048E+01  d E =0.000000E+00  mag=     0.6105
