<?xml version="1.0" encoding="ISO-8859-1"?>
<modeling>
 <generator>
  <i name="program" type="string">vasp </i>
  <i name="version" type="string">5.4.1  </i>
  <i name="subversion" type="string">05Feb16 (build Oct 12 2016 17:31:35) complex                          parallel </i>
  <i name="platform" type="string">IFC91_ompi </i>
  <i name="date" type="string">2020 09 07 </i>
  <i name="time" type="string">22:41:45 </i>
 </generator>
 <incar>
  <i type="string" name="SYSTEM"> phonon of Zr bcc - omiga</i>
  <i type="string" name="PREC">a</i>
  <i type="int" name="ISPIN">     2</i>
  <i type="int" name="IBRION">     6</i>
  <i name="EDIFF">      0.00000100</i>
  <i type="int" name="NSW">     1</i>
  <v name="MAGMOM">      1.00000000      1.00000000      1.00000000      1.00000000      1.00000000      1.00000000      1.00000000      1.00000000      1.00000000      1.00000000      1.00000000      1.00000000      1.00000000      1.00000000      1.00000000      1.00000000      1.00000000      1.00000000      1.00000000      1.00000000
      1.00000000      1.00000000      1.00000000      1.00000000      1.00000000      1.00000000      1.00000000      1.00000000      1.00000000      1.00000000      1.00000000      1.00000000      1.00000000      1.00000000      1.00000000      1.00000000      1.00000000      1.00000000      1.00000000      1.00000000
      1.00000000      1.00000000      1.00000000      1.00000000      1.00000000      1.00000000      1.00000000      1.00000000      1.00000000      1.00000000      1.00000000      1.00000000      1.00000000      1.00000000      1.00000000      1.00000000      1.00000000      1.00000000      1.00000000      1.00000000
      1.00000000      1.00000000      1.00000000      1.00000000</v>
  <i type="string" name="LREAL">Auto</i>
  <i type="int" name="ISMEAR">     1</i>
  <i type="int" name="NWRITE">     0</i>
  <v type="int" name="KPOINT_BSE">    -1     0     0     0</v>
 </incar>
 <kpoints>
  <generation param="Gamma">
   <v type="int" name="divisions">       5        5        5 </v>
   <v name="usershift">      0.00000000       0.00000000       0.00000000 </v>
   <v name="genvec1">      0.20000000       0.00000000       0.00000000 </v>
   <v name="genvec2">      0.00000000       0.20000000       0.00000000 </v>
   <v name="genvec3">      0.00000000       0.00000000       0.20000000 </v>
   <v name="shift">      0.00000000       0.00000000       0.00000000 </v>
  </generation>
  <varray name="kpointlist" >
   <v>       0.00000000       0.00000000       0.00000000 </v>
   <v>       0.20000000       0.00000000       0.00000000 </v>
   <v>       0.40000000       0.00000000       0.00000000 </v>
   <v>       0.20000000       0.20000000       0.00000000 </v>
   <v>       0.40000000       0.20000000       0.00000000 </v>
   <v>      -0.40000000       0.20000000       0.00000000 </v>
   <v>      -0.20000000       0.20000000       0.00000000 </v>
   <v>       0.40000000       0.40000000       0.00000000 </v>
   <v>      -0.40000000       0.40000000       0.00000000 </v>
   <v>      -0.40000000       0.40000000       0.20000000 </v>
  </varray>
  <varray name="weights" >
   <v>       0.00800000 </v>
   <v>       0.06400000 </v>
   <v>       0.06400000 </v>
   <v>       0.04800000 </v>
   <v>       0.19200000 </v>
   <v>       0.19200000 </v>
   <v>       0.09600000 </v>
   <v>       0.04800000 </v>
   <v>       0.09600000 </v>
   <v>       0.19200000 </v>
  </varray>
 </kpoints>
 <parameters>
  <separator name="general" >
   <i type="string" name="SYSTEM">phonon of Zr bcc - omiga</i>
   <i type="logical" name="LCOMPAT"> F  </i>
  </separator>
  <separator name="electronic" >
   <i type="string" name="PREC">a</i>
   <i name="ENMAX">    367.94500000</i>
   <i name="ENAUG">    703.44300000</i>
   <i name="EDIFF">      0.00000100</i>
   <i type="int" name="IALGO">    38</i>
   <i type="int" name="IWAVPR">    11</i>
   <i type="int" name="NBANDS">   648</i>
   <i name="NELECT">   1024.00000000</i>
   <i type="int" name="TURBO">     0</i>
   <i type="int" name="IRESTART">     0</i>
   <i type="int" name="NREBOOT">     0</i>
   <i type="int" name="NMIN">     0</i>
   <i name="EREF">      0.00000000</i>
   <separator name="electronic smearing" >
    <i type="int" name="ISMEAR">     1</i>
    <i name="SIGMA">      0.20000000</i>
    <i name="KSPACING">      0.50000000</i>
    <i type="logical" name="KGAMMA"> T  </i>
   </separator>
   <separator name="electronic projectors" >
    <i type="logical" name="LREAL"> T  </i>
    <v name="ROPT">     -0.00025000</v>
    <i type="int" name="LMAXPAW">  -100</i>
    <i type="int" name="LMAXMIX">     2</i>
    <i type="logical" name="NLSPLINE"> F  </i>
   </separator>
   <separator name="electronic startup" >
    <i type="int" name="ISTART">     0</i>
    <i type="int" name="ICHARG">     2</i>
    <i type="int" name="INIWAV">     1</i>
   </separator>
   <separator name="electronic spin" >
    <i type="int" name="ISPIN">     2</i>
    <i type="logical" name="LNONCOLLINEAR"> F  </i>
    <v name="MAGMOM">      1.00000000      1.00000000      1.00000000      1.00000000      1.00000000      1.00000000      1.00000000      1.00000000      1.00000000      1.00000000      1.00000000      1.00000000      1.00000000      1.00000000      1.00000000      1.00000000      1.00000000      1.00000000      1.00000000      1.00000000
      1.00000000      1.00000000      1.00000000      1.00000000      1.00000000      1.00000000      1.00000000      1.00000000      1.00000000      1.00000000      1.00000000      1.00000000      1.00000000      1.00000000      1.00000000      1.00000000      1.00000000      1.00000000      1.00000000      1.00000000
      1.00000000      1.00000000      1.00000000      1.00000000      1.00000000      1.00000000      1.00000000      1.00000000      1.00000000      1.00000000      1.00000000      1.00000000      1.00000000      1.00000000      1.00000000      1.00000000      1.00000000      1.00000000      1.00000000      1.00000000
      1.00000000      1.00000000      1.00000000      1.00000000</v>
    <i name="NUPDOWN">     -1.00000000</i>
    <i type="logical" name="LSORBIT"> F  </i>
    <v name="SAXIS">      0.00000000      0.00000000      1.00000000</v>
    <i type="logical" name="LSPIRAL"> F  </i>
    <v name="QSPIRAL">      0.00000000      0.00000000      0.00000000</v>
    <i type="logical" name="LZEROZ"> F  </i>
   </separator>
   <separator name="electronic exchange-correlation" >
    <i type="logical" name="LASPH"> F  </i>
    <i type="logical" name="LMETAGGA"> F  </i>
   </separator>
   <separator name="electronic convergence" >
    <i type="int" name="NELM">    60</i>
    <i type="int" name="NELMDL">     0</i>
    <i type="int" name="NELMIN">     2</i>
    <i name="ENINI">    367.94500000</i>
    <separator name="electronic convergence detail" >
     <i type="logical" name="LDIAG"> T  </i>
     <i type="logical" name="LSUBROT"> F  </i>
     <i name="WEIMIN">      0.00100000</i>
     <i name="EBREAK">      0.00000000</i>
     <i name="DEPER">      0.30000000</i>
     <i type="int" name="NRMM">     4</i>
     <i name="TIME">      0.40000000</i>
    </separator>
   </separator>
   <separator name="electronic mixer" >
    <i name="AMIX">      0.40000000</i>
    <i name="BMIX">      1.00000000</i>
    <i name="AMIN">      0.10000000</i>
    <i name="AMIX_MAG">      1.60000000</i>
    <i name="BMIX_MAG">      1.00000000</i>
    <separator name="electronic mixer details" >
     <i type="int" name="IMIX">     4</i>
     <i type="logical" name="MIXFIRST"> F  </i>
     <i type="int" name="MAXMIX">   -45</i>
     <i name="WC">    100.00000000</i>
     <i type="int" name="INIMIX">     1</i>
     <i type="int" name="MIXPRE">     1</i>
     <i type="int" name="MREMOVE">     5</i>
    </separator>
   </separator>
   <separator name="electronic dipolcorrection" >
    <i type="logical" name="LDIPOL"> F  </i>
    <i type="logical" name="LMONO"> F  </i>
    <i type="int" name="IDIPOL">     0</i>
    <i name="EPSILON">      1.00000000</i>
    <v name="DIPOL">   -100.00000000   -100.00000000   -100.00000000</v>
    <i name="EFIELD">      0.00000000</i>
   </separator>
  </separator>
  <separator name="grids" >
   <i type="int" name="NGX">    64</i>
   <i type="int" name="NGY">    64</i>
   <i type="int" name="NGZ">    64</i>
   <i type="int" name="NGXF">   128</i>
   <i type="int" name="NGYF">   128</i>
   <i type="int" name="NGZF">   128</i>
   <i type="logical" name="ADDGRID"> F  </i>
  </separator>
  <separator name="ionic" >
   <i type="int" name="NSW">   805</i>
   <i type="int" name="IBRION">     6</i>
   <i type="int" name="ISIF">     2</i>
   <i name="PSTRESS">      0.00000000</i>
   <i name="EDIFFG">      0.00001000</i>
   <i type="int" name="NFREE">     2</i>
   <i name="POTIM">      0.50000000</i>
   <i name="SMASS">     -3.00000000</i>
   <i name="SCALEE">      1.00000000</i>
  </separator>
  <separator name="ionic md" >
   <i name="TEBEG">      0.00010000</i>
   <i name="TEEND">      0.00010000</i>
   <i type="int" name="NBLOCK">     1</i>
   <i type="int" name="KBLOCK">     1</i>
   <i type="int" name="NPACO">   256</i>
   <i name="APACO">     16.00000000</i>
  </separator>
  <separator name="symmetry" >
   <i type="int" name="ISYM">     2</i>
   <i name="SYMPREC">      0.00001000</i>
  </separator>
  <separator name="dos" >
   <i type="logical" name="LORBIT"> F  </i>
   <v name="RWIGS">     -1.00000000</v>
   <i type="int" name="NEDOS">   301</i>
   <i name="EMIN">     10.00000000</i>
   <i name="EMAX">    -10.00000000</i>
   <i name="EFERMI">      0.00000000</i>
  </separator>
  <separator name="writing" >
   <i type="int" name="NWRITE">     0</i>
   <i type="logical" name="LWAVE"> T  </i>
   <i type="logical" name="LCHARG"> T  </i>
   <i type="logical" name="LPARD"> F  </i>
   <i type="logical" name="LVTOT"> F  </i>
   <i type="logical" name="LVHAR"> F  </i>
   <i type="logical" name="LELF"> F  </i>
   <i type="logical" name="LOPTICS"> F  </i>
   <v name="STM">      0.00000000      0.00000000      0.00000000      0.00000000      0.00000000      0.00000000      0.00000000</v>
  </separator>
  <separator name="performance" >
   <i type="int" name="NPAR">     4</i>
   <i type="int" name="NSIM">     4</i>
   <i type="int" name="NBLK">    -1</i>
   <i type="logical" name="LPLANE"> T  </i>
   <i type="logical" name="LSCALAPACK"> T  </i>
   <i type="logical" name="LSCAAWARE"> F  </i>
   <i type="logical" name="LSCALU"> F  </i>
   <i type="logical" name="LASYNC"> F  </i>
   <i type="logical" name="LORBITALREAL"> F  </i>
  </separator>
  <separator name="miscellaneous" >
   <i type="int" name="IDIOT">     3</i>
   <i type="logical" name="LMUSIC"> F  </i>
   <v name="POMASS">     58.69000000</v>
   <v name="DARWINR">      0.00000000</v>
   <v name="DARWINV">      1.00000000</v>
   <i type="logical" name="LCORR"> T  </i>
  </separator>
  <i type="logical" name="GGA_COMPAT"> T  </i>
  <i type="logical" name="LBERRY"> F  </i>
  <i type="int" name="ICORELEVEL">     0</i>
  <i type="logical" name="LDAU"> F  </i>
  <i type="int" name="I_CONSTRAINED_M">     0</i>
  <separator name="electronic exchange-correlation" >
   <i type="string" name="GGA">--</i>
   <i type="int" name="VOSKOWN">     0</i>
   <i type="logical" name="LHFCALC"> F  </i>
   <i type="string" name="PRECFOCK"></i>
   <i type="logical" name="LSYMGRAD"> F  </i>
   <i type="logical" name="LHFONE"> F  </i>
   <i type="logical" name="LRHFCALC"> F  </i>
   <i type="logical" name="LTHOMAS"> F  </i>
   <i type="logical" name="LMODELHF"> F  </i>
   <i name="ENCUT4O">     -1.00000000</i>
   <i type="int" name="EXXOEP">     0</i>
   <i type="int" name="FOURORBIT">     0</i>
   <i name="AEXX">      0.00000000</i>
   <i name="HFALPHA">      0.00000000</i>
   <i name="MCALPHA">      0.00000000</i>
   <i name="ALDAX">      1.00000000</i>
   <i name="AGGAX">      1.00000000</i>
   <i name="ALDAC">      1.00000000</i>
   <i name="AGGAC">      1.00000000</i>
   <i type="int" name="NKREDX">     1</i>
   <i type="int" name="NKREDY">     1</i>
   <i type="int" name="NKREDZ">     1</i>
   <i type="logical" name="SHIFTRED"> F  </i>
   <i type="logical" name="ODDONLY"> F  </i>
   <i type="logical" name="EVENONLY"> F  </i>
   <i type="int" name="LMAXFOCK">     0</i>
   <i type="int" name="NMAXFOCKAE">     0</i>
   <i type="logical" name="LFOCKAEDFT"> F  </i>
   <i name="HFSCREEN">      0.00000000</i>
   <i name="HFSCREENC">      0.00000000</i>
   <i type="int" name="NBANDSGWLOW">     0</i>
  </separator>
  <separator name="vdW DFT" >
   <i type="logical" name="LUSE_VDW"> F  </i>
   <i name="Zab_VDW">     -0.84910000</i>
   <i name="PARAM1">      0.12340000</i>
   <i name="PARAM2">      1.00000000</i>
   <i name="PARAM3">      0.00000000</i>
  </separator>
  <separator name="model GW" >
   <i type="int" name="MODEL_GW">     0</i>
   <i name="MODEL_EPS0">      6.27880961</i>
   <i name="MODEL_ALPHA">      1.00000000</i>
  </separator>
  <separator name="linear response parameters" >
   <i type="logical" name="LEPSILON"> F  </i>
   <i type="logical" name="LRPA"> F  </i>
   <i type="logical" name="LNABLA"> F  </i>
   <i type="logical" name="LVEL"> F  </i>
   <i type="int" name="KINTER">     0</i>
   <i name="CSHIFT">      0.10000000</i>
   <i name="OMEGAMAX">     -1.00000000</i>
   <i name="DEG_THRESHOLD">      0.00200000</i>
  </separator>
  <separator name="orbital magnetization" >
   <i type="logical" name="NUCIND"> F  </i>
   <v name="MAGPOS">      0.00000000      0.00000000      0.00000000</v>
   <i type="logical" name="LNICSALL"> T  </i>
   <i type="logical" name="ORBITALMAG"> F  </i>
   <i type="logical" name="LMAGBLOCH"> F  </i>
   <i type="logical" name="LCHIMAG"> F  </i>
   <i type="logical" name="LGAUGE"> T  </i>
   <i type="int" name="MAGATOM">     0</i>
   <v name="MAGDIPOL">      0.00000000      0.00000000      0.00000000</v>
   <v name="AVECCONST">      0.00000000      0.00000000      0.00000000</v>
  </separator>
  <separator name="response functions" >
   <i type="logical" name="LADDER"> F  </i>
   <i type="logical" name="LFXC"> F  </i>
   <i type="logical" name="LHARTREE"> T  </i>
   <i type="int" name="IBSE">     0</i>
   <v type="int" name="KPOINT">    -1     0     0     0</v>
   <i type="logical" name="LTCTE"> F  </i>
   <i type="logical" name="LTETE"> F  </i>
   <i type="logical" name="LTRIPLET"> F  </i>
   <i type="logical" name="LFXCEPS"> F  </i>
   <i type="logical" name="LFXHEG"> F  </i>
   <i type="int" name="NATURALO">     0</i>
   <i type="logical" name="L2ORDER"> F  </i>
   <i type="logical" name="LUSEW"> F  </i>
   <i name="ENCUTGW">     -2.00000000</i>
   <i name="ENCUTGWSOFT">     -2.00000000</i>
   <i name="ENCUTLF">     -1.00000000</i>
   <i type="int" name="LMAXMP2">    -1</i>
   <i name="SCISSOR">      0.00000000</i>
   <i type="int" name="NOMEGA">     0</i>
   <i type="int" name="NOMEGAR">     0</i>
   <i type="int" name="NBANDSGW">    -1</i>
   <i type="int" name="NBANDSO">    -1</i>
   <i type="int" name="NBANDSV">    -1</i>
   <i type="int" name="NELM">     1</i>
   <i type="int" name="NELMHF">     1</i>
   <i type="int" name="DIM">     3</i>
   <i type="int" name="ANTIRES">     0</i>
   <i name="OMEGAMAX">    -30.00000000</i>
   <i name="OMEGAMIN">    -30.00000000</i>
   <i name="OMEGATL">   -200.00000000</i>
   <i type="int" name="OMEGAGRID">     0</i>
   <i name="CSHIFT">     -0.10000000</i>
   <i type="logical" name="SELFENERGY"> F  </i>
   <i type="logical" name="LSPECTRAL"> F  </i>
   <i type="logical" name="LSPECTRALGW"> F  </i>
   <i type="logical" name="LSINGLES"> F  </i>
   <i type="logical" name="LFERMIGW"> F  </i>
   <i type="logical" name="ODDONLYGW"> F  </i>
   <i type="logical" name="EVENONLYGW"> F  </i>
   <i type="int" name="NKREDLFX">     1</i>
   <i type="int" name="NKREDLFY">     1</i>
   <i type="int" name="NKREDLFZ">     1</i>
   <i type="int" name="MAXMEM">  1800</i>
   <i type="int" name="TELESCOPE">     0</i>
   <i type="int" name="TAUPAR">     1</i>
   <i type="int" name="OMEGAPAR">    -1</i>
   <i name="LAMBDA">      1.00000000</i>
  </separator>
  <separator name="External order field" >
   <i name="OFIELD_KAPPA">      0.00000000</i>
   <v name="OFIELD_K">      0.00000000      0.00000000      0.00000000</v>
   <i name="OFIELD_Q6_NEAR">      0.00000000</i>
   <i name="OFIELD_Q6_FAR">      0.00000000</i>
   <i name="OFIELD_A">      0.00000000</i>
  </separator>
 </parameters>
 <atominfo>
  <atoms>      64 </atoms>
  <types>       1 </types>
  <array name="atoms" >
   <dimension dim="1">ion</dimension>
   <field type="string">element</field>
   <field type="int">atomtype</field>
   <set>
    <rc><c>Ni</c><c>   1</c></rc>
    <rc><c>Ni</c><c>   1</c></rc>
    <rc><c>Ni</c><c>   1</c></rc>
    <rc><c>Ni</c><c>   1</c></rc>
    <rc><c>Ni</c><c>   1</c></rc>
    <rc><c>Ni</c><c>   1</c></rc>
    <rc><c>Ni</c><c>   1</c></rc>
    <rc><c>Ni</c><c>   1</c></rc>
    <rc><c>Ni</c><c>   1</c></rc>
    <rc><c>Ni</c><c>   1</c></rc>
    <rc><c>Ni</c><c>   1</c></rc>
    <rc><c>Ni</c><c>   1</c></rc>
    <rc><c>Ni</c><c>   1</c></rc>
    <rc><c>Ni</c><c>   1</c></rc>
    <rc><c>Ni</c><c>   1</c></rc>
    <rc><c>Ni</c><c>   1</c></rc>
    <rc><c>Ni</c><c>   1</c></rc>
    <rc><c>Ni</c><c>   1</c></rc>
    <rc><c>Ni</c><c>   1</c></rc>
    <rc><c>Ni</c><c>   1</c></rc>
    <rc><c>Ni</c><c>   1</c></rc>
    <rc><c>Ni</c><c>   1</c></rc>
    <rc><c>Ni</c><c>   1</c></rc>
    <rc><c>Ni</c><c>   1</c></rc>
    <rc><c>Ni</c><c>   1</c></rc>
    <rc><c>Ni</c><c>   1</c></rc>
    <rc><c>Ni</c><c>   1</c></rc>
    <rc><c>Ni</c><c>   1</c></rc>
    <rc><c>Ni</c><c>   1</c></rc>
    <rc><c>Ni</c><c>   1</c></rc>
    <rc><c>Ni</c><c>   1</c></rc>
    <rc><c>Ni</c><c>   1</c></rc>
    <rc><c>Ni</c><c>   1</c></rc>
    <rc><c>Ni</c><c>   1</c></rc>
    <rc><c>Ni</c><c>   1</c></rc>
    <rc><c>Ni</c><c>   1</c></rc>
    <rc><c>Ni</c><c>   1</c></rc>
    <rc><c>Ni</c><c>   1</c></rc>
    <rc><c>Ni</c><c>   1</c></rc>
    <rc><c>Ni</c><c>   1</c></rc>
    <rc><c>Ni</c><c>   1</c></rc>
    <rc><c>Ni</c><c>   1</c></rc>
    <rc><c>Ni</c><c>   1</c></rc>
    <rc><c>Ni</c><c>   1</c></rc>
    <rc><c>Ni</c><c>   1</c></rc>
    <rc><c>Ni</c><c>   1</c></rc>
    <rc><c>Ni</c><c>   1</c></rc>
    <rc><c>Ni</c><c>   1</c></rc>
    <rc><c>Ni</c><c>   1</c></rc>
    <rc><c>Ni</c><c>   1</c></rc>
    <rc><c>Ni</c><c>   1</c></rc>
    <rc><c>Ni</c><c>   1</c></rc>
    <rc><c>Ni</c><c>   1</c></rc>
    <rc><c>Ni</c><c>   1</c></rc>
    <rc><c>Ni</c><c>   1</c></rc>
    <rc><c>Ni</c><c>   1</c></rc>
    <rc><c>Ni</c><c>   1</c></rc>
    <rc><c>Ni</c><c>   1</c></rc>
    <rc><c>Ni</c><c>   1</c></rc>
    <rc><c>Ni</c><c>   1</c></rc>
    <rc><c>Ni</c><c>   1</c></rc>
    <rc><c>Ni</c><c>   1</c></rc>
    <rc><c>Ni</c><c>   1</c></rc>
    <rc><c>Ni</c><c>   1</c></rc>
   </set>
  </array>
  <array name="atomtypes" >
   <dimension dim="1">type</dimension>
   <field type="int">atomspertype</field>
   <field type="string">element</field>
   <field>mass</field>
   <field>valence</field>
   <field type="string">pseudopotential</field>
   <set>
    <rc><c>  64</c><c>Ni</c><c>     58.69000000</c><c>     16.00000000</c><c> PAW_PBE Ni_pv 06Sep2000                </c></rc>
   </set>
  </array>
 </atominfo>
 <structure name="initialpos" >
  <crystal>
   <varray name="basis" >
    <v>       0.00000000       6.94425000       6.94425000 </v>
    <v>       6.94425000       0.00000000       6.94425000 </v>
    <v>       6.94425000       6.94425000       0.00000000 </v>
   </varray>
   <i name="volume">    669.73969208 </i>
   <varray name="rec_basis" >
    <v>      -0.07200202       0.07200202       0.07200202 </v>
    <v>       0.07200202      -0.07200202       0.07200202 </v>
    <v>       0.07200202       0.07200202      -0.07200202 </v>
   </varray>
  </crystal>
  <varray name="positions" >
   <v>       0.00000000       0.00000000       0.00000000 </v>
   <v>       0.00000000       0.00000000       0.25000000 </v>
   <v>       0.00000000       0.00000000       0.50000000 </v>
   <v>       0.00000000       0.00000000       0.75000000 </v>
   <v>       0.00000000       0.25000000       0.00000000 </v>
   <v>       0.00000000       0.25000000       0.25000000 </v>
   <v>       0.00000000       0.25000000       0.50000000 </v>
   <v>       0.00000000       0.25000000       0.75000000 </v>
   <v>       0.00000000       0.50000000       0.00000000 </v>
   <v>       0.00000000       0.50000000       0.25000000 </v>
   <v>       0.00000000       0.50000000       0.50000000 </v>
   <v>       0.00000000       0.50000000       0.75000000 </v>
   <v>       0.00000000       0.75000000       0.00000000 </v>
   <v>       0.00000000       0.75000000       0.25000000 </v>
   <v>       0.00000000       0.75000000       0.50000000 </v>
   <v>       0.00000000       0.75000000       0.75000000 </v>
   <v>       0.25000000       0.00000000       0.00000000 </v>
   <v>       0.25000000       0.00000000       0.25000000 </v>
   <v>       0.25000000       0.00000000       0.50000000 </v>
   <v>       0.25000000       0.00000000       0.75000000 </v>
   <v>       0.25000000       0.25000000       0.00000000 </v>
   <v>       0.25000000       0.25000000       0.25000000 </v>
   <v>       0.25000000       0.25000000       0.50000000 </v>
   <v>       0.25000000       0.25000000       0.75000000 </v>
   <v>       0.25000000       0.50000000       0.00000000 </v>
   <v>       0.25000000       0.50000000       0.25000000 </v>
   <v>       0.25000000       0.50000000       0.50000000 </v>
   <v>       0.25000000       0.50000000       0.75000000 </v>
   <v>       0.25000000       0.75000000       0.00000000 </v>
   <v>       0.25000000       0.75000000       0.25000000 </v>
   <v>       0.25000000       0.75000000       0.50000000 </v>
   <v>       0.25000000       0.75000000       0.75000000 </v>
   <v>       0.50000000       0.00000000       0.00000000 </v>
   <v>       0.50000000       0.00000000       0.25000000 </v>
   <v>       0.50000000       0.00000000       0.50000000 </v>
   <v>       0.50000000       0.00000000       0.75000000 </v>
   <v>       0.50000000       0.25000000       0.00000000 </v>
   <v>       0.50000000       0.25000000       0.25000000 </v>
   <v>       0.50000000       0.25000000       0.50000000 </v>
   <v>       0.50000000       0.25000000       0.75000000 </v>
   <v>       0.50000000       0.50000000       0.00000000 </v>
   <v>       0.50000000       0.50000000       0.25000000 </v>
   <v>       0.50000000       0.50000000       0.50000000 </v>
   <v>       0.50000000       0.50000000       0.75000000 </v>
   <v>       0.50000000       0.75000000       0.00000000 </v>
   <v>       0.50000000       0.75000000       0.25000000 </v>
   <v>       0.50000000       0.75000000       0.50000000 </v>
   <v>       0.50000000       0.75000000       0.75000000 </v>
   <v>       0.75000000       0.00000000       0.00000000 </v>
   <v>       0.75000000       0.00000000       0.25000000 </v>
   <v>       0.75000000       0.00000000       0.50000000 </v>
   <v>       0.75000000       0.00000000       0.75000000 </v>
   <v>       0.75000000       0.25000000       0.00000000 </v>
   <v>       0.75000000       0.25000000       0.25000000 </v>
   <v>       0.75000000       0.25000000       0.50000000 </v>
   <v>       0.75000000       0.25000000       0.75000000 </v>
   <v>       0.75000000       0.50000000       0.00000000 </v>
   <v>       0.75000000       0.50000000       0.25000000 </v>
   <v>       0.75000000       0.50000000       0.50000000 </v>
   <v>       0.75000000       0.50000000       0.75000000 </v>
   <v>       0.75000000       0.75000000       0.00000000 </v>
   <v>       0.75000000       0.75000000       0.25000000 </v>
   <v>       0.75000000       0.75000000       0.50000000 </v>
   <v>       0.75000000       0.75000000       0.75000000 </v>
  </varray>
 </structure>
 <calculation>
  <scstep>
   <time name="dav">  318.85  319.09</time>
   <time name="total">  319.54  319.88</time>
   <energy>
    <i name="alphaZ">  10302.80525912 </i>
    <i name="ewald">-155767.55935366 </i>
    <i name="hartreedc"> -60457.14383472 </i>
    <i name="XCdc">   5728.73356811 </i>
    <i name="pawpsdc"> 172361.15642774 </i>
    <i name="pawaedc">-181272.45834873 </i>
    <i name="eentropy">     -0.00189465 </i>
    <i name="bandstr">   -819.85868899 </i>
    <i name="atom"> 224013.29143063 </i>
    <i name="e_fr_energy">  14088.96456485 </i>
    <i name="e_wo_entrp">  14088.96645950 </i>
    <i name="e_0_energy">  14088.96519640 </i>
   </energy>
  </scstep>
  <scstep>
   <time name="dav">  283.92  283.98</time>
   <time name="total">  283.93  283.99</time>
   <energy>
    <i name="e_fr_energy">    857.04268447 </i>
    <i name="e_wo_entrp">    857.04699528 </i>
    <i name="e_0_energy">    857.04412141 </i>
   </energy>
  </scstep>
  <scstep>
   <time name="dav">  289.29  289.40</time>
   <time name="total">  289.30  289.41</time>
   <energy>
    <i name="e_fr_energy">   -368.00245369 </i>
    <i name="e_wo_entrp">   -367.98425720 </i>
    <i name="e_0_energy">   -367.99638819 </i>
   </energy>
  </scstep>
  <scstep>
   <time name="dav">  297.96  297.95</time>
   <time name="total">  297.97  297.96</time>
   <energy>
    <i name="e_fr_energy">   -429.35590039 </i>
    <i name="e_wo_entrp">   -429.37260401 </i>
    <i name="e_0_energy">   -429.36146826 </i>
   </energy>
  </scstep>
  <scstep>
   <time name="dav">  291.99  294.55</time>
   <time name="total">  304.31  306.87</time>
   <energy>
    <i name="e_fr_energy">   -430.24146398 </i>
    <i name="e_wo_entrp">   -430.25881876 </i>
    <i name="e_0_energy">   -430.24724891 </i>
   </energy>
  </scstep>
  <scstep>
   <time name="dav">  292.91  292.93</time>
   <time name="total">  305.91  305.98</time>
   <energy>
    <i name="e_fr_energy">   -391.53359393 </i>
    <i name="e_wo_entrp">   -391.28605244 </i>
    <i name="e_0_energy">   -391.45108010 </i>
   </energy>
  </scstep>
  <scstep>
   <time name="dav">  291.81  291.82</time>
   <time name="total">  304.86  304.87</time>
   <energy>
    <i name="e_fr_energy">   -367.57625961 </i>
    <i name="e_wo_entrp">   -367.49314120 </i>
    <i name="e_0_energy">   -367.54855348 </i>
   </energy>
  </scstep>
  <scstep>
   <time name="dav">  295.85  296.11</time>
   <time name="total">  308.64  308.90</time>
   <energy>
    <i name="e_fr_energy">   -367.55375298 </i>
    <i name="e_wo_entrp">   -367.46846593 </i>
    <i name="e_0_energy">   -367.52532396 </i>
   </energy>
  </scstep>
  <scstep>
   <time name="dav">  296.83  296.76</time>
   <time name="total">  309.68  309.60</time>
   <energy>
    <i name="e_fr_energy">   -367.47915702 </i>
    <i name="e_wo_entrp">   -367.39116774 </i>
    <i name="e_0_energy">   -367.44982726 </i>
   </energy>
  </scstep>
  <scstep>
   <time name="dav">  309.15  309.13</time>
   <time name="total">  322.17  322.93</time>
   <energy>
    <i name="e_fr_energy">   -367.48152563 </i>
    <i name="e_wo_entrp">   -367.39412189 </i>
    <i name="e_0_energy">   -367.45239105 </i>
   </energy>
  </scstep>
  <scstep>
   <time name="dav">  298.10  300.55</time>
   <time name="total">  310.92  313.37</time>
   <energy>
    <i name="e_fr_energy">   -367.48453544 </i>
    <i name="e_wo_entrp">   -367.39706491 </i>
    <i name="e_0_energy">   -367.45537859 </i>
   </energy>
  </scstep>
  <scstep>
   <time name="dav">  297.64  297.58</time>
   <time name="total">  310.45  310.39</time>
   <energy>
    <i name="e_fr_energy">   -367.48461578 </i>
    <i name="e_wo_entrp">   -367.39658027 </i>
    <i name="e_0_energy">   -367.45527061 </i>
   </energy>
  </scstep>
  <scstep>
   <time name="dav">  258.39  258.42</time>
   <time name="total">  271.28  271.30</time>
   <energy>
    <i name="e_fr_energy">   -367.48462885 </i>
    <i name="e_wo_entrp">   -367.39654446 </i>
    <i name="e_0_energy">   -367.45526739 </i>
   </energy>
  </scstep>
  <scstep>
   <time name="dav">  249.91  249.81</time>
   <time name="total">  262.72  262.63</time>
   <energy>
    <i name="e_fr_energy">   -367.48460340 </i>
    <i name="e_wo_entrp">   -367.39657163 </i>
    <i name="e_0_energy">   -367.45525948 </i>
   </energy>
  </scstep>
  <scstep>
   <time name="dav">  180.62  180.54</time>
   <time name="total">  193.47  193.38</time>
   <energy>
    <i name="e_fr_energy">   -367.48459707 </i>
    <i name="e_wo_entrp">   -367.39657711 </i>
    <i name="e_0_energy">   -367.45525708 </i>
   </energy>
  </scstep>
  <scstep>
   <time name="dav">  179.26  179.32</time>
   <time name="total">  179.96  180.01</time>
   <energy>
    <i name="alphaZ">  10302.80525912 </i>
    <i name="ewald">-155767.55935366 </i>
    <i name="hartreedc"> -58094.66582215 </i>
    <i name="XCdc">   5637.60458106 </i>
    <i name="pawpsdc"> 172778.19696700 </i>
    <i name="pawaedc">-181835.99730806 </i>
    <i name="eentropy">     -0.08802028 </i>
    <i name="bandstr"> -17401.07233117 </i>
    <i name="atom"> 224013.29143063 </i>
    <i name="e_fr_energy">   -367.48459752 </i>
    <i name="e_wo_entrp">   -367.39657724 </i>
    <i name="e_0_energy">   -367.45525743 </i>
   </energy>
  </scstep>
  <structure>
   <crystal>
    <varray name="basis" >
     <v>       0.00000000       6.94425000       6.94425000 </v>
     <v>       6.94425000       0.00000000       6.94425000 </v>
     <v>       6.94425000       6.94425000       0.00000000 </v>
    </varray>
    <i name="volume">    669.73969208 </i>
    <varray name="rec_basis" >
     <v>      -0.07200202       0.07200202       0.07200202 </v>
     <v>       0.07200202      -0.07200202       0.07200202 </v>
     <v>       0.07200202       0.07200202      -0.07200202 </v>
    </varray>
   </crystal>
   <varray name="positions" >
    <v>       0.00000000       0.00000000       0.00000000 </v>
    <v>       0.00000000       0.00000000       0.25000000 </v>
    <v>       0.00000000       0.00000000       0.50000000 </v>
    <v>       0.00000000       0.00000000       0.75000000 </v>
    <v>       0.00000000       0.25000000       0.00000000 </v>
    <v>       0.00000000       0.25000000       0.25000000 </v>
    <v>       0.00000000       0.25000000       0.50000000 </v>
    <v>       0.00000000       0.25000000       0.75000000 </v>
    <v>       0.00000000       0.50000000       0.00000000 </v>
    <v>       0.00000000       0.50000000       0.25000000 </v>
    <v>       0.00000000       0.50000000       0.50000000 </v>
    <v>       0.00000000       0.50000000       0.75000000 </v>
    <v>       0.00000000       0.75000000       0.00000000 </v>
    <v>       0.00000000       0.75000000       0.25000000 </v>
    <v>       0.00000000       0.75000000       0.50000000 </v>
    <v>       0.00000000       0.75000000       0.75000000 </v>
    <v>       0.25000000       0.00000000       0.00000000 </v>
    <v>       0.25000000       0.00000000       0.25000000 </v>
    <v>       0.25000000       0.00000000       0.50000000 </v>
    <v>       0.25000000       0.00000000       0.75000000 </v>
    <v>       0.25000000       0.25000000       0.00000000 </v>
    <v>       0.25000000       0.25000000       0.25000000 </v>
    <v>       0.25000000       0.25000000       0.50000000 </v>
    <v>       0.25000000       0.25000000       0.75000000 </v>
    <v>       0.25000000       0.50000000       0.00000000 </v>
    <v>       0.25000000       0.50000000       0.25000000 </v>
    <v>       0.25000000       0.50000000       0.50000000 </v>
    <v>       0.25000000       0.50000000       0.75000000 </v>
    <v>       0.25000000       0.75000000       0.00000000 </v>
    <v>       0.25000000       0.75000000       0.25000000 </v>
    <v>       0.25000000       0.75000000       0.50000000 </v>
    <v>       0.25000000       0.75000000       0.75000000 </v>
    <v>       0.50000000       0.00000000       0.00000000 </v>
    <v>       0.50000000       0.00000000       0.25000000 </v>
    <v>       0.50000000       0.00000000       0.50000000 </v>
    <v>       0.50000000       0.00000000       0.75000000 </v>
    <v>       0.50000000       0.25000000       0.00000000 </v>
    <v>       0.50000000       0.25000000       0.25000000 </v>
    <v>       0.50000000       0.25000000       0.50000000 </v>
    <v>       0.50000000       0.25000000       0.75000000 </v>
    <v>       0.50000000       0.50000000       0.00000000 </v>
    <v>       0.50000000       0.50000000       0.25000000 </v>
    <v>       0.50000000       0.50000000       0.50000000 </v>
    <v>       0.50000000       0.50000000       0.75000000 </v>
    <v>       0.50000000       0.75000000       0.00000000 </v>
    <v>       0.50000000       0.75000000       0.25000000 </v>
    <v>       0.50000000       0.75000000       0.50000000 </v>
    <v>       0.50000000       0.75000000       0.75000000 </v>
    <v>       0.75000000       0.00000000       0.00000000 </v>
    <v>       0.75000000       0.00000000       0.25000000 </v>
    <v>       0.75000000       0.00000000       0.50000000 </v>
    <v>       0.75000000       0.00000000       0.75000000 </v>
    <v>       0.75000000       0.25000000       0.00000000 </v>
    <v>       0.75000000       0.25000000       0.25000000 </v>
    <v>       0.75000000       0.25000000       0.50000000 </v>
    <v>       0.75000000       0.25000000       0.75000000 </v>
    <v>       0.75000000       0.50000000       0.00000000 </v>
    <v>       0.75000000       0.50000000       0.25000000 </v>
    <v>       0.75000000       0.50000000       0.50000000 </v>
    <v>       0.75000000       0.50000000       0.75000000 </v>
    <v>       0.75000000       0.75000000       0.00000000 </v>
    <v>       0.75000000       0.75000000       0.25000000 </v>
    <v>       0.75000000       0.75000000       0.50000000 </v>
    <v>       0.75000000       0.75000000       0.75000000 </v>
   </varray>
  </structure>
  <varray name="forces" >
   <v>      -0.00000000       0.00000000       0.00000000 </v>
   <v>      -0.00000000      -0.00000000       0.00000000 </v>
   <v>       0.00000000      -0.00000000      -0.00000000 </v>
   <v>      -0.00000000       0.00000000      -0.00000000 </v>
   <v>      -0.00000000      -0.00000000      -0.00000000 </v>
   <v>      -0.00000000      -0.00000000      -0.00000000 </v>
   <v>      -0.00000000       0.00000000      -0.00000000 </v>
   <v>       0.00000000       0.00000000       0.00000000 </v>
   <v>      -0.00000000      -0.00000000      -0.00000000 </v>
   <v>       0.00000000      -0.00000000       0.00000000 </v>
   <v>      -0.00000000       0.00000000       0.00000000 </v>
   <v>       0.00000000       0.00000000      -0.00000000 </v>
   <v>      -0.00000000      -0.00000000      -0.00000000 </v>
   <v>      -0.00000000       0.00000000       0.00000000 </v>
   <v>       0.00000000       0.00000000       0.00000000 </v>
   <v>       0.00000000      -0.00000000      -0.00000000 </v>
   <v>      -0.00000000       0.00000000      -0.00000000 </v>
   <v>      -0.00000000      -0.00000000       0.00000000 </v>
   <v>       0.00000000      -0.00000000      -0.00000000 </v>
   <v>       0.00000000       0.00000000       0.00000000 </v>
   <v>      -0.00000000      -0.00000000       0.00000000 </v>
   <v>      -0.00000000      -0.00000000       0.00000000 </v>
   <v>       0.00000000       0.00000000       0.00000000 </v>
   <v>       0.00000000       0.00000000      -0.00000000 </v>
   <v>       0.00000000      -0.00000000      -0.00000000 </v>
   <v>      -0.00000000      -0.00000000      -0.00000000 </v>
   <v>       0.00000000       0.00000000       0.00000000 </v>
   <v>       0.00000000       0.00000000      -0.00000000 </v>
   <v>      -0.00000000      -0.00000000       0.00000000 </v>
   <v>      -0.00000000       0.00000000       0.00000000 </v>
   <v>       0.00000000       0.00000000       0.00000000 </v>
   <v>       0.00000000      -0.00000000      -0.00000000 </v>
   <v>      -0.00000000       0.00000000       0.00000000 </v>
   <v>      -0.00000000      -0.00000000      -0.00000000 </v>
   <v>      -0.00000000       0.00000000      -0.00000000 </v>
   <v>      -0.00000000       0.00000000       0.00000000 </v>
   <v>      -0.00000000      -0.00000000      -0.00000000 </v>
   <v>      -0.00000000      -0.00000000       0.00000000 </v>
   <v>      -0.00000000       0.00000000      -0.00000000 </v>
   <v>       0.00000000       0.00000000      -0.00000000 </v>
   <v>      -0.00000000      -0.00000000       0.00000000 </v>
   <v>       0.00000000      -0.00000000      -0.00000000 </v>
   <v>       0.00000000       0.00000000      -0.00000000 </v>
   <v>       0.00000000       0.00000000      -0.00000000 </v>
   <v>      -0.00000000      -0.00000000       0.00000000 </v>
   <v>      -0.00000000       0.00000000      -0.00000000 </v>
   <v>       0.00000000       0.00000000      -0.00000000 </v>
   <v>       0.00000000      -0.00000000       0.00000000 </v>
   <v>       0.00000000       0.00000000       0.00000000 </v>
   <v>      -0.00000000      -0.00000000       0.00000000 </v>
   <v>       0.00000000      -0.00000000      -0.00000000 </v>
   <v>       0.00000000      -0.00000000       0.00000000 </v>
   <v>      -0.00000000      -0.00000000      -0.00000000 </v>
   <v>      -0.00000000      -0.00000000      -0.00000000 </v>
   <v>       0.00000000       0.00000000       0.00000000 </v>
   <v>       0.00000000       0.00000000      -0.00000000 </v>
   <v>      -0.00000000      -0.00000000      -0.00000000 </v>
   <v>       0.00000000      -0.00000000       0.00000000 </v>
   <v>       0.00000000       0.00000000      -0.00000000 </v>
   <v>       0.00000000      -0.00000000      -0.00000000 </v>
   <v>       0.00000000      -0.00000000       0.00000000 </v>
   <v>      -0.00000000       0.00000000      -0.00000000 </v>
   <v>      -0.00000000       0.00000000      -0.00000000 </v>
   <v>       0.00000000      -0.00000000      -0.00000000 </v>
  </varray>
  <varray name="stress" >
   <v>     -63.96897489      -0.00000000       0.00000000 </v>
   <v>       0.00000000     -63.96897489       0.00000000 </v>
   <v>       0.00000000       0.00000000     -63.96897489 </v>
  </varray>
  <energy>
   <i name="e_fr_energy">   -367.48459752 </i>
   <i name="e_wo_entrp">   -367.45525743 </i>
   <i name="e_0_energy">     -0.08802028 </i>
  </energy>
  <kpoints>
   <generation param="Gamma">
    <v type="int" name="divisions">       5        5        5 </v>
    <v name="usershift">      0.00000000       0.00000000       0.00000000 </v>
    <v name="genvec1">      0.20000000       0.00000000       0.00000000 </v>
    <v name="genvec2">      0.00000000       0.20000000       0.00000000 </v>
    <v name="genvec3">      0.00000000       0.00000000       0.20000000 </v>
    <v name="shift">      0.00000000       0.00000000       0.00000000 </v>
   </generation>
   <varray name="kpointlist" >
    <v>       0.00000000       0.00000000       0.00000000 </v>
    <v>       0.20000000       0.00000000       0.00000000 </v>
    <v>       0.40000000       0.00000000       0.00000000 </v>
    <v>       0.20000000       0.20000000       0.00000000 </v>
    <v>       0.40000000       0.20000000       0.00000000 </v>
    <v>      -0.40000000       0.20000000       0.00000000 </v>
    <v>      -0.20000000       0.20000000       0.00000000 </v>
    <v>       0.40000000       0.40000000       0.00000000 </v>
    <v>      -0.40000000       0.40000000       0.00000000 </v>
    <v>       0.00000000       0.20000000       0.20000000 </v>
    <v>       0.40000000       0.20000000       0.20000000 </v>
    <v>      -0.40000000       0.20000000       0.20000000 </v>
    <v>      -0.20000000       0.20000000       0.20000000 </v>
    <v>      -0.40000000       0.40000000       0.20000000 </v>
    <v>      -0.20000000       0.40000000       0.20000000 </v>
    <v>       0.40000000      -0.40000000       0.20000000 </v>
    <v>       0.00000000       0.40000000       0.40000000 </v>
    <v>      -0.20000000       0.40000000       0.40000000 </v>
   </varray>
   <varray name="weights" >
    <v>       0.00800000 </v>
    <v>       0.06400000 </v>
    <v>       0.06400000 </v>
    <v>       0.03200000 </v>
    <v>       0.12800000 </v>
    <v>       0.12800000 </v>
    <v>       0.06400000 </v>
    <v>       0.03200000 </v>
    <v>       0.06400000 </v>
    <v>       0.01600000 </v>
    <v>       0.03200000 </v>
    <v>       0.06400000 </v>
    <v>       0.06400000 </v>
    <v>       0.06400000 </v>
    <v>       0.06400000 </v>
    <v>       0.06400000 </v>
    <v>       0.01600000 </v>
    <v>       0.03200000 </v>
   </varray>
  </kpoints>
  <time name="totalsc"> 4984.22 4992.59</time>
 </calculation>
 <calculation>
  <scstep>
   <time name="dav">  657.63  657.65</time>
   <time name="total">  678.65  678.66</time>
   <energy>
    <i name="alphaZ">  10302.80525912 </i>
    <i name="ewald">-155767.39594914 </i>
    <i name="hartreedc"> -58094.82294463 </i>
    <i name="XCdc">   5637.60536656 </i>
    <i name="pawpsdc"> 172778.03013521 </i>
    <i name="pawaedc">-181835.83945095 </i>
    <i name="eentropy">     -0.08799783 </i>
    <i name="bandstr"> -17400.99815841 </i>
    <i name="atom"> 224013.29143063 </i>
    <i name="e_fr_energy">   -367.41230944 </i>
    <i name="e_wo_entrp">   -367.32431161 </i>
    <i name="e_0_energy">   -367.38297683 </i>
   </energy>
  </scstep>
  <scstep>
   <time name="dav">  553.85  553.98</time>
   <time name="total">  575.82  575.95</time>
   <energy>
    <i name="e_fr_energy">   -367.48405612 </i>
    <i name="e_wo_entrp">   -367.39611425 </i>
    <i name="e_0_energy">   -367.45474217 </i>
   </energy>
  </scstep>
  <scstep>
   <time name="dav">  639.13  642.57</time>
   <time name="total">  661.28  664.73</time>
   <energy>
    <i name="e_fr_energy">   -367.48499897 </i>
    <i name="e_wo_entrp">   -367.39699263 </i>
    <i name="e_0_energy">   -367.45566352 </i>
   </energy>
  </scstep>
  <scstep>
   <time name="dav">  651.96  653.21</time>
   <time name="total">  674.08  675.36</time>
   <energy>
    <i name="e_fr_energy">   -367.48449387 </i>
    <i name="e_wo_entrp">   -367.39651403 </i>
    <i name="e_0_energy">   -367.45516726 </i>
   </energy>
  </scstep>
  <scstep>
   <time name="dav">  588.30  589.03</time>
   <time name="total">  610.47  611.28</time>
   <energy>
    <i name="e_fr_energy">   -367.48353592 </i>
    <i name="e_wo_entrp">   -367.39553251 </i>
    <i name="e_0_energy">   -367.45420145 </i>
   </energy>
  </scstep>
  <scstep>
   <time name="dav">  660.00  664.08</time>
   <time name="total">  681.70  685.78</time>
   <energy>
    <i name="e_fr_energy">   -367.48352145 </i>
    <i name="e_wo_entrp">   -367.39551576 </i>
    <i name="e_0_energy">   -367.45418622 </i>
   </energy>
  </scstep>
  <scstep>
   <time name="dav">  590.75  591.60</time>
   <time name="total">  612.80  613.70</time>
   <energy>
    <i name="e_fr_energy">   -367.48347118 </i>
    <i name="e_wo_entrp">   -367.39546603 </i>
    <i name="e_0_energy">   -367.45413613 </i>
   </energy>
  </scstep>
  <scstep>
   <time name="dav">  601.03  601.89</time>
   <time name="total">  623.15  624.03</time>
   <energy>
    <i name="e_fr_energy">   -367.48345902 </i>
    <i name="e_wo_entrp">   -367.39545308 </i>
    <i name="e_0_energy">   -367.45412370 </i>
   </energy>
  </scstep>
  <scstep>
   <time name="dav">  635.99  642.05</time>
   <time name="total">  657.90  663.97</time>
   <energy>
    <i name="e_fr_energy">   -367.48344125 </i>
    <i name="e_wo_entrp">   -367.39543533 </i>
    <i name="e_0_energy">   -367.45410594 </i>
   </energy>
  </scstep>
  <scstep>
   <time name="dav">  650.12  651.49</time>
   <time name="total">  671.98  673.34</time>
   <energy>
    <i name="e_fr_energy">   -367.48337374 </i>
    <i name="e_wo_entrp">   -367.39536714 </i>
    <i name="e_0_energy">   -367.45403821 </i>
   </energy>
  </scstep>
  <scstep>
   <time name="dav">  681.88  682.93</time>
   <time name="total">  703.56  705.39</time>
   <energy>
    <i name="e_fr_energy">   -367.48338009 </i>
    <i name="e_wo_entrp">   -367.39537433 </i>
    <i name="e_0_energy">   -367.45404483 </i>
   </energy>
  </scstep>
  <scstep>
   <time name="dav">  563.14  566.54</time>
   <time name="total">  584.25  587.63</time>
   <energy>
    <i name="e_fr_energy">   -367.48337556 </i>
    <i name="e_wo_entrp">   -367.39537164 </i>
    <i name="e_0_energy">   -367.45404092 </i>
   </energy>
  </scstep>
  <scstep>
   <time name="dav">  331.73  331.57</time>
   <time name="total">  332.45  332.28</time>
   <energy>
    <i name="alphaZ">  10302.80525912 </i>
    <i name="ewald">-155767.39594914 </i>
    <i name="hartreedc"> -58094.81963333 </i>
    <i name="XCdc">   5637.60503377 </i>
    <i name="pawpsdc"> 172777.93996475 </i>
    <i name="pawaedc">-181835.75099419 </i>
    <i name="eentropy">     -0.08800404 </i>
    <i name="bandstr"> -17401.07048305 </i>
    <i name="atom"> 224013.29143063 </i>
    <i name="e_fr_energy">   -367.48337549 </i>
    <i name="e_wo_entrp">   -367.39537145 </i>
    <i name="e_0_energy">   -367.45404081 </i>
   </energy>
  </scstep>
  <structure>
   <crystal>
    <varray name="basis" >
     <v>       0.00000000       6.94425000       6.94425000 </v>
     <v>       6.94425000       0.00000000       6.94425000 </v>
     <v>       6.94425000       6.94425000       0.00000000 </v>
    </varray>
    <i name="volume">    669.73969208 </i>
    <varray name="rec_basis" >
     <v>      -0.07200202       0.07200202       0.07200202 </v>
     <v>       0.07200202      -0.07200202       0.07200202 </v>
     <v>       0.07200202       0.07200202      -0.07200202 </v>
    </varray>
   </crystal>
   <varray name="positions" >
    <v>      -0.00108003       0.00108003       0.00108003 </v>
    <v>       0.00000000       0.00000000       0.25000000 </v>
    <v>       0.00000000       0.00000000       0.50000000 </v>
    <v>       0.00000000       0.00000000       0.75000000 </v>
    <v>       0.00000000       0.25000000       0.00000000 </v>
    <v>       0.00000000       0.25000000       0.25000000 </v>
    <v>       0.00000000       0.25000000       0.50000000 </v>
    <v>       0.00000000       0.25000000       0.75000000 </v>
    <v>       0.00000000       0.50000000       0.00000000 </v>
    <v>       0.00000000       0.50000000       0.25000000 </v>
    <v>       0.00000000       0.50000000       0.50000000 </v>
    <v>       0.00000000       0.50000000       0.75000000 </v>
    <v>       0.00000000       0.75000000       0.00000000 </v>
    <v>       0.00000000       0.75000000       0.25000000 </v>
    <v>       0.00000000       0.75000000       0.50000000 </v>
    <v>       0.00000000       0.75000000       0.75000000 </v>
    <v>       0.25000000       0.00000000       0.00000000 </v>
    <v>       0.25000000       0.00000000       0.25000000 </v>
    <v>       0.25000000       0.00000000       0.50000000 </v>
    <v>       0.25000000       0.00000000       0.75000000 </v>
    <v>       0.25000000       0.25000000       0.00000000 </v>
    <v>       0.25000000       0.25000000       0.25000000 </v>
    <v>       0.25000000       0.25000000       0.50000000 </v>
    <v>       0.25000000       0.25000000       0.75000000 </v>
    <v>       0.25000000       0.50000000       0.00000000 </v>
    <v>       0.25000000       0.50000000       0.25000000 </v>
    <v>       0.25000000       0.50000000       0.50000000 </v>
    <v>       0.25000000       0.50000000       0.75000000 </v>
    <v>       0.25000000       0.75000000       0.00000000 </v>
    <v>       0.25000000       0.75000000       0.25000000 </v>
    <v>       0.25000000       0.75000000       0.50000000 </v>
    <v>       0.25000000       0.75000000       0.75000000 </v>
    <v>       0.50000000       0.00000000       0.00000000 </v>
    <v>       0.50000000       0.00000000       0.25000000 </v>
    <v>       0.50000000       0.00000000       0.50000000 </v>
    <v>       0.50000000       0.00000000       0.75000000 </v>
    <v>       0.50000000       0.25000000       0.00000000 </v>
    <v>       0.50000000       0.25000000       0.25000000 </v>
    <v>       0.50000000       0.25000000       0.50000000 </v>
    <v>       0.50000000       0.25000000       0.75000000 </v>
    <v>       0.50000000       0.50000000       0.00000000 </v>
    <v>       0.50000000       0.50000000       0.25000000 </v>
    <v>       0.50000000       0.50000000       0.50000000 </v>
    <v>       0.50000000       0.50000000       0.75000000 </v>
    <v>       0.50000000       0.75000000       0.00000000 </v>
    <v>       0.50000000       0.75000000       0.25000000 </v>
    <v>       0.50000000       0.75000000       0.50000000 </v>
    <v>       0.50000000       0.75000000       0.75000000 </v>
    <v>       0.75000000       0.00000000       0.00000000 </v>
    <v>       0.75000000       0.00000000       0.25000000 </v>
    <v>       0.75000000       0.00000000       0.50000000 </v>
    <v>       0.75000000       0.00000000       0.75000000 </v>
    <v>       0.75000000       0.25000000       0.00000000 </v>
    <v>       0.75000000       0.25000000       0.25000000 </v>
    <v>       0.75000000       0.25000000       0.50000000 </v>
    <v>       0.75000000       0.25000000       0.75000000 </v>
    <v>       0.75000000       0.50000000       0.00000000 </v>
    <v>       0.75000000       0.50000000       0.25000000 </v>
    <v>       0.75000000       0.50000000       0.50000000 </v>
    <v>       0.75000000       0.50000000       0.75000000 </v>
    <v>       0.75000000       0.75000000       0.00000000 </v>
    <v>       0.75000000       0.75000000       0.25000000 </v>
    <v>       0.75000000       0.75000000       0.50000000 </v>
    <v>       0.75000000       0.75000000       0.75000000 </v>
   </varray>
  </structure>
  <varray name="forces" >
   <v>      -0.15860827       0.00000000       0.00000000 </v>
   <v>       0.01950337       0.02254854       0.00000000 </v>
   <v>      -0.00022993      -0.00039653       0.00000000 </v>
   <v>       0.01861755       0.02130071       0.00000000 </v>
   <v>       0.01950337       0.00000000       0.02254854 </v>
   <v>       0.00116648       0.00073566       0.00073566 </v>
   <v>       0.00017513       0.00079512      -0.00038220 </v>
   <v>      -0.00089394       0.00011464      -0.00011464 </v>
   <v>      -0.00022993       0.00000000      -0.00039653 </v>
   <v>       0.00017513      -0.00038220       0.00079512 </v>
   <v>      -0.00007047       0.00000000       0.00000000 </v>
   <v>       0.00019289      -0.00040102       0.00066113 </v>
   <v>       0.01861755       0.00000000       0.02130071 </v>
   <v>      -0.00089394      -0.00011464       0.00011464 </v>
   <v>       0.00019289       0.00066113      -0.00040102 </v>
   <v>       0.00128274       0.00070374       0.00070374 </v>
   <v>      -0.00089394      -0.00011464      -0.00011464 </v>
   <v>       0.00019289       0.00066113       0.00040102 </v>
   <v>       0.00128274       0.00070374      -0.00070374 </v>
   <v>       0.01861755       0.00000000      -0.02130071 </v>
   <v>       0.00019289       0.00040102       0.00066113 </v>
   <v>      -0.00007049       0.00000000       0.00000000 </v>
   <v>       0.00017513       0.00038220      -0.00079512 </v>
   <v>      -0.00065832       0.00000000      -0.00012524 </v>
   <v>       0.00128274      -0.00070374       0.00070374 </v>
   <v>       0.00017513      -0.00079512       0.00038220 </v>
   <v>      -0.00049587      -0.00007809      -0.00007809 </v>
   <v>       0.00001835       0.00000000      -0.00025216 </v>
   <v>       0.01861755      -0.02130071       0.00000000 </v>
   <v>      -0.00065832      -0.00012524       0.00000000 </v>
   <v>       0.00001835      -0.00025216       0.00000000 </v>
   <v>       0.00211759       0.00000000       0.00000000 </v>
   <v>      -0.00007047       0.00000000       0.00000000 </v>
   <v>       0.00019289      -0.00040102      -0.00066113 </v>
   <v>      -0.00022993       0.00000000       0.00039653 </v>
   <v>       0.00017513      -0.00038220      -0.00079512 </v>
   <v>       0.00019289      -0.00066113      -0.00040102 </v>
   <v>       0.00116648      -0.00073566      -0.00073566 </v>
   <v>      -0.00015499       0.00000000       0.00008829 </v>
   <v>      -0.00049587       0.00007809      -0.00007809 </v>
   <v>      -0.00022993       0.00039653       0.00000000 </v>
   <v>      -0.00015499       0.00008829       0.00000000 </v>
   <v>      -0.00065311       0.00000000       0.00000000 </v>
   <v>       0.00001835       0.00025216       0.00000000 </v>
   <v>       0.00017513      -0.00079512      -0.00038220 </v>
   <v>      -0.00049587      -0.00007809       0.00007809 </v>
   <v>       0.00001835       0.00000000       0.00025216 </v>
   <v>       0.00128274      -0.00070374      -0.00070374 </v>
   <v>      -0.00089394       0.00011464       0.00011464 </v>
   <v>       0.01950337       0.00000000      -0.02254854 </v>
   <v>       0.00116648       0.00073566      -0.00073566 </v>
   <v>       0.00017513       0.00079512       0.00038220 </v>
   <v>       0.01950337      -0.02254854       0.00000000 </v>
   <v>       0.00185980       0.00000000       0.00000000 </v>
   <v>      -0.00015499      -0.00008829       0.00000000 </v>
   <v>      -0.00065832       0.00012524       0.00000000 </v>
   <v>       0.00116648      -0.00073566       0.00073566 </v>
   <v>      -0.00015499       0.00000000      -0.00008829 </v>
   <v>      -0.00049587       0.00007809       0.00007809 </v>
   <v>       0.00019289      -0.00066113       0.00040102 </v>
   <v>       0.00017513       0.00038220       0.00079512 </v>
   <v>      -0.00065832       0.00000000       0.00012524 </v>
   <v>       0.00019289       0.00040102      -0.00066113 </v>
   <v>      -0.00007049      -0.00000000       0.00000000 </v>
  </varray>
  <varray name="stress" >
   <v>     -64.01270646       0.00000000       0.00000000 </v>
   <v>      -0.00000000     -64.02295446       0.00000000 </v>
   <v>       0.00000000       0.00000000     -64.02295446 </v>
  </varray>
  <energy>
   <i name="e_fr_energy">   -367.48337549 </i>
   <i name="e_wo_entrp">   -367.45404081 </i>
   <i name="e_0_energy">     -0.08800404 </i>
  </energy>
  <kpoints>
   <generation param="Gamma">
    <v type="int" name="divisions">       5        5        5 </v>
    <v name="usershift">      0.00000000       0.00000000       0.00000000 </v>
    <v name="genvec1">      0.20000000       0.00000000       0.00000000 </v>
    <v name="genvec2">      0.00000000       0.20000000       0.00000000 </v>
    <v name="genvec3">      0.00000000       0.00000000       0.20000000 </v>
    <v name="shift">      0.00000000       0.00000000       0.00000000 </v>
   </generation>
   <varray name="kpointlist" >
    <v>       0.00000000       0.00000000       0.00000000 </v>
    <v>       0.20000000       0.00000000       0.00000000 </v>
    <v>       0.40000000       0.00000000       0.00000000 </v>
    <v>       0.20000000       0.20000000       0.00000000 </v>
    <v>       0.40000000       0.20000000       0.00000000 </v>
    <v>      -0.40000000       0.20000000       0.00000000 </v>
    <v>      -0.20000000       0.20000000       0.00000000 </v>
    <v>       0.40000000       0.40000000       0.00000000 </v>
    <v>      -0.40000000       0.40000000       0.00000000 </v>
    <v>       0.00000000       0.20000000       0.20000000 </v>
    <v>       0.40000000       0.20000000       0.20000000 </v>
    <v>      -0.40000000       0.20000000       0.20000000 </v>
    <v>      -0.20000000       0.20000000       0.20000000 </v>
    <v>      -0.40000000       0.40000000       0.20000000 </v>
    <v>      -0.20000000       0.40000000       0.20000000 </v>
    <v>       0.40000000      -0.40000000       0.20000000 </v>
    <v>       0.00000000       0.40000000       0.40000000 </v>
    <v>      -0.20000000       0.40000000       0.40000000 </v>
   </varray>
   <varray name="weights" >
    <v>       0.00800000 </v>
    <v>       0.06400000 </v>
    <v>       0.06400000 </v>
    <v>       0.03200000 </v>
    <v>       0.12800000 </v>
    <v>       0.12800000 </v>
    <v>       0.06400000 </v>
    <v>       0.03200000 </v>
    <v>       0.06400000 </v>
    <v>       0.01600000 </v>
    <v>       0.03200000 </v>
    <v>       0.06400000 </v>
    <v>       0.06400000 </v>
    <v>       0.06400000 </v>
    <v>       0.06400000 </v>
    <v>       0.06400000 </v>
    <v>       0.01600000 </v>
    <v>       0.03200000 </v>
   </varray>
  </kpoints>
  <time name="totalsc"> 8761.48 8791.80</time>
 </calculation>
 <calculation>
  <scstep>
   <time name="dav">  687.52  701.49</time>
   <time name="total">  710.63  725.45</time>
   <energy>
    <i name="alphaZ">  10302.80525912 </i>
    <i name="ewald">-155767.39594914 </i>
    <i name="hartreedc"> -58094.86119164 </i>
    <i name="XCdc">   5637.60726772 </i>
    <i name="pawpsdc"> 172777.91927576 </i>
    <i name="pawaedc">-181835.72961754 </i>
    <i name="eentropy">     -0.08794115 </i>
    <i name="bandstr"> -17400.77277468 </i>
    <i name="atom"> 224013.29143063 </i>
    <i name="e_fr_energy">   -367.22424092 </i>
    <i name="e_wo_entrp">   -367.13629977 </i>
    <i name="e_0_energy">   -367.19492720 </i>
   </energy>
  </scstep>
  <scstep>
   <time name="dav">  564.54  578.59</time>
   <time name="total">  587.11  601.63</time>
   <energy>
    <i name="e_fr_energy">   -367.49380095 </i>
    <i name="e_wo_entrp">   -367.40626317 </i>
    <i name="e_0_energy">   -367.46462169 </i>
   </energy>
  </scstep>
  <scstep>
   <time name="dav">  622.14  630.64</time>
   <time name="total">  644.62  655.44</time>
   <energy>
    <i name="e_fr_energy">   -367.48631929 </i>
    <i name="e_wo_entrp">   -367.39828687 </i>
    <i name="e_0_energy">   -367.45697515 </i>
   </energy>
  </scstep>
  <scstep>
   <time name="dav">  651.01  663.15</time>
   <time name="total">  673.62  686.17</time>
   <energy>
    <i name="e_fr_energy">   -367.48990145 </i>
    <i name="e_wo_entrp">   -367.40204241 </i>
    <i name="e_0_energy">   -367.46061510 </i>
   </energy>
  </scstep>
  <scstep>
   <time name="dav">  577.00  587.36</time>
   <time name="total">  599.18  610.16</time>
   <energy>
    <i name="e_fr_energy">   -367.48402202 </i>
    <i name="e_wo_entrp">   -367.39601621 </i>
    <i name="e_0_energy">   -367.45468675 </i>
   </energy>
  </scstep>
  <scstep>
   <time name="dav">  643.37  662.74</time>
   <time name="total">  666.27  685.92</time>
   <energy>
    <i name="e_fr_energy">   -367.48388570 </i>
    <i name="e_wo_entrp">   -367.39587386 </i>
    <i name="e_0_energy">   -367.45454842 </i>
   </energy>
  </scstep>
  <scstep>
   <time name="dav">  589.25  596.74</time>
   <time name="total">  611.56  619.26</time>
   <energy>
    <i name="e_fr_energy">   -367.48375104 </i>
    <i name="e_wo_entrp">   -367.39574186 </i>
    <i name="e_0_energy">   -367.45441465 </i>
   </energy>
  </scstep>
  <scstep>
   <time name="dav">  592.93  596.28</time>
   <time name="total">  615.25  618.97</time>
   <energy>
    <i name="e_fr_energy">   -367.48360802 </i>
    <i name="e_wo_entrp">   -367.39560067 </i>
    <i name="e_0_energy">   -367.45427224 </i>
   </energy>
  </scstep>
  <scstep>
   <time name="dav">  606.64  624.62</time>
   <time name="total">  629.17  647.21</time>
   <energy>
    <i name="e_fr_energy">   -367.48369578 </i>
    <i name="e_wo_entrp">   -367.39568907 </i>
    <i name="e_0_energy">   -367.45436021 </i>
   </energy>
  </scstep>
  <scstep>
   <time name="dav">  639.59  645.85</time>
   <time name="total">  662.38  668.93</time>
   <energy>
    <i name="e_fr_energy">   -367.48344269 </i>
    <i name="e_wo_entrp">   -367.39544052 </i>
    <i name="e_0_energy">   -367.45410863 </i>
   </energy>
  </scstep>
  <scstep>
   <time name="dav">  647.29  651.98</time>
   <time name="total">  669.97  674.83</time>
   <energy>
    <i name="e_fr_energy">   -367.48337221 </i>
    <i name="e_wo_entrp">   -367.39536694 </i>
    <i name="e_0_energy">   -367.45403712 </i>
   </energy>
  </scstep>
  <scstep>
   <time name="dav">  641.18  644.56</time>
   <time name="total">  664.22  667.59</time>
   <energy>
    <i name="e_fr_energy">   -367.48337942 </i>
    <i name="e_wo_entrp">   -367.39537741 </i>
    <i name="e_0_energy">   -367.45404542 </i>
   </energy>
  </scstep>
  <scstep>
   <time name="dav">  574.41  581.15</time>
   <time name="total">  597.43  604.56</time>
   <energy>
    <i name="e_fr_energy">   -367.48337585 </i>
    <i name="e_wo_entrp">   -367.39537299 </i>
    <i name="e_0_energy">   -367.45404157 </i>
   </energy>
  </scstep>
  <scstep>
   <time name="dav">  400.41  402.90</time>
   <time name="total">  423.00  425.77</time>
   <energy>
    <i name="e_fr_energy">   -367.48337703 </i>
    <i name="e_wo_entrp">   -367.39537355 </i>
    <i name="e_0_energy">   -367.45404254 </i>
   </energy>
  </scstep>
  <scstep>
   <time name="dav">  374.09  381.09</time>
   <time name="total">  396.78  403.95</time>
   <energy>
    <i name="e_fr_energy">   -367.48337546 </i>
    <i name="e_wo_entrp">   -367.39536954 </i>
    <i name="e_0_energy">   -367.45404015 </i>
   </energy>
  </scstep>
  <scstep>
   <time name="dav">  341.18  344.52</time>
   <time name="total">  341.90  345.25</time>
   <energy>
    <i name="alphaZ">  10302.80525912 </i>
    <i name="ewald">-155767.39594914 </i>
    <i name="hartreedc"> -58094.81030018 </i>
    <i name="XCdc">   5637.60467608 </i>
    <i name="pawpsdc"> 172777.91277031 </i>
    <i name="pawaedc">-181835.72386654 </i>
    <i name="eentropy">     -0.08800481 </i>
    <i name="bandstr"> -17401.07939122 </i>
    <i name="atom"> 224013.29143063 </i>
    <i name="e_fr_energy">   -367.48337576 </i>
    <i name="e_wo_entrp">   -367.39537095 </i>
    <i name="e_0_energy">   -367.45404082 </i>
   </energy>
  </scstep>
  <structure>
   <crystal>
    <varray name="basis" >
     <v>       0.00000000       6.94425000       6.94425000 </v>
     <v>       6.94425000       0.00000000       6.94425000 </v>
     <v>       6.94425000       6.94425000       0.00000000 </v>
    </varray>
    <i name="volume">    669.73969208 </i>
    <varray name="rec_basis" >
     <v>      -0.07200202       0.07200202       0.07200202 </v>
     <v>       0.07200202      -0.07200202       0.07200202 </v>
     <v>       0.07200202       0.07200202      -0.07200202 </v>
    </varray>
   </crystal>
   <varray name="positions" >
    <v>       0.00108003      -0.00108003      -0.00108003 </v>
    <v>       0.00000000       0.00000000       0.25000000 </v>
    <v>       0.00000000       0.00000000       0.50000000 </v>
    <v>       0.00000000       0.00000000       0.75000000 </v>
    <v>       0.00000000       0.25000000       0.00000000 </v>
    <v>       0.00000000       0.25000000       0.25000000 </v>
    <v>       0.00000000       0.25000000       0.50000000 </v>
    <v>       0.00000000       0.25000000       0.75000000 </v>
    <v>       0.00000000       0.50000000       0.00000000 </v>
    <v>       0.00000000       0.50000000       0.25000000 </v>
    <v>       0.00000000       0.50000000       0.50000000 </v>
    <v>       0.00000000       0.50000000       0.75000000 </v>
    <v>       0.00000000       0.75000000       0.00000000 </v>
    <v>       0.00000000       0.75000000       0.25000000 </v>
    <v>       0.00000000       0.75000000       0.50000000 </v>
    <v>       0.00000000       0.75000000       0.75000000 </v>
    <v>       0.25000000       0.00000000       0.00000000 </v>
    <v>       0.25000000       0.00000000       0.25000000 </v>
    <v>       0.25000000       0.00000000       0.50000000 </v>
    <v>       0.25000000       0.00000000       0.75000000 </v>
    <v>       0.25000000       0.25000000       0.00000000 </v>
    <v>       0.25000000       0.25000000       0.25000000 </v>
    <v>       0.25000000       0.25000000       0.50000000 </v>
    <v>       0.25000000       0.25000000       0.75000000 </v>
    <v>       0.25000000       0.50000000       0.00000000 </v>
    <v>       0.25000000       0.50000000       0.25000000 </v>
    <v>       0.25000000       0.50000000       0.50000000 </v>
    <v>       0.25000000       0.50000000       0.75000000 </v>
    <v>       0.25000000       0.75000000       0.00000000 </v>
    <v>       0.25000000       0.75000000       0.25000000 </v>
    <v>       0.25000000       0.75000000       0.50000000 </v>
    <v>       0.25000000       0.75000000       0.75000000 </v>
    <v>       0.50000000       0.00000000       0.00000000 </v>
    <v>       0.50000000       0.00000000       0.25000000 </v>
    <v>       0.50000000       0.00000000       0.50000000 </v>
    <v>       0.50000000       0.00000000       0.75000000 </v>
    <v>       0.50000000       0.25000000       0.00000000 </v>
    <v>       0.50000000       0.25000000       0.25000000 </v>
    <v>       0.50000000       0.25000000       0.50000000 </v>
    <v>       0.50000000       0.25000000       0.75000000 </v>
    <v>       0.50000000       0.50000000       0.00000000 </v>
    <v>       0.50000000       0.50000000       0.25000000 </v>
    <v>       0.50000000       0.50000000       0.50000000 </v>
    <v>       0.50000000       0.50000000       0.75000000 </v>
    <v>       0.50000000       0.75000000       0.00000000 </v>
    <v>       0.50000000       0.75000000       0.25000000 </v>
    <v>       0.50000000       0.75000000       0.50000000 </v>
    <v>       0.50000000       0.75000000       0.75000000 </v>
    <v>       0.75000000       0.00000000       0.00000000 </v>
    <v>       0.75000000       0.00000000       0.25000000 </v>
    <v>       0.75000000       0.00000000       0.50000000 </v>
    <v>       0.75000000       0.00000000       0.75000000 </v>
    <v>       0.75000000       0.25000000       0.00000000 </v>
    <v>       0.75000000       0.25000000       0.25000000 </v>
    <v>       0.75000000       0.25000000       0.50000000 </v>
    <v>       0.75000000       0.25000000       0.75000000 </v>
    <v>       0.75000000       0.50000000       0.00000000 </v>
    <v>       0.75000000       0.50000000       0.25000000 </v>
    <v>       0.75000000       0.50000000       0.50000000 </v>
    <v>       0.75000000       0.50000000       0.75000000 </v>
    <v>       0.75000000       0.75000000       0.00000000 </v>
    <v>       0.75000000       0.75000000       0.25000000 </v>
    <v>       0.75000000       0.75000000       0.50000000 </v>
    <v>       0.75000000       0.75000000       0.75000000 </v>
   </varray>
  </structure>
  <varray name="forces" >
   <v>       0.15981895       0.00000000      -0.00000000 </v>
   <v>      -0.01917480      -0.02230203      -0.00000000 </v>
   <v>       0.00015242       0.00022162      -0.00000000 </v>
   <v>      -0.01991606      -0.02334621      -0.00000000 </v>
   <v>      -0.01917480       0.00000000      -0.02230203 </v>
   <v>      -0.00116064      -0.00072896      -0.00072896 </v>
   <v>      -0.00011501      -0.00075371       0.00042451 </v>
   <v>       0.00125639       0.00018283      -0.00018283 </v>
   <v>       0.00015242       0.00000000       0.00022162 </v>
   <v>      -0.00011501       0.00042451      -0.00075371 </v>
   <v>       0.00010552       0.00000000      -0.00000000 </v>
   <v>      -0.00011590       0.00040824      -0.00072665 </v>
   <v>      -0.01991606       0.00000000      -0.02334621 </v>
   <v>       0.00125639      -0.00018283       0.00018283 </v>
   <v>      -0.00011590      -0.00072665       0.00040824 </v>
   <v>      -0.00119944      -0.00074128      -0.00074128 </v>
   <v>       0.00125639      -0.00018283      -0.00018283 </v>
   <v>      -0.00011590      -0.00072665      -0.00040824 </v>
   <v>      -0.00119944      -0.00074128       0.00074128 </v>
   <v>      -0.01991606       0.00000000       0.02334621 </v>
   <v>      -0.00011590      -0.00040824      -0.00072665 </v>
   <v>       0.00008862       0.00000000      -0.00000000 </v>
   <v>      -0.00011501      -0.00042451       0.00075371 </v>
   <v>       0.00075029       0.00000000      -0.00000115 </v>
   <v>      -0.00119944       0.00074128      -0.00074128 </v>
   <v>      -0.00011501       0.00075371      -0.00042451 </v>
   <v>       0.00052553      -0.00003164      -0.00003164 </v>
   <v>       0.00008125       0.00000000       0.00008034 </v>
   <v>      -0.01991606       0.02334621      -0.00000000 </v>
   <v>       0.00075029      -0.00000115      -0.00000000 </v>
   <v>       0.00008125       0.00008034      -0.00000000 </v>
   <v>      -0.00212785       0.00000000      -0.00000000 </v>
   <v>       0.00010552       0.00000000      -0.00000000 </v>
   <v>      -0.00011590       0.00040824       0.00072665 </v>
   <v>       0.00015242       0.00000000      -0.00022162 </v>
   <v>      -0.00011501       0.00042451       0.00075371 </v>
   <v>      -0.00011590       0.00072665       0.00040824 </v>
   <v>      -0.00116064       0.00072896       0.00072896 </v>
   <v>       0.00000320       0.00000000      -0.00014960 </v>
   <v>       0.00052553       0.00003164      -0.00003164 </v>
   <v>       0.00015242      -0.00022162      -0.00000000 </v>
   <v>       0.00000320      -0.00014960      -0.00000000 </v>
   <v>       0.00068197       0.00000000      -0.00000000 </v>
   <v>       0.00008125      -0.00008034      -0.00000000 </v>
   <v>      -0.00011501       0.00075371       0.00042451 </v>
   <v>       0.00052553      -0.00003164       0.00003164 </v>
   <v>       0.00008125       0.00000000      -0.00008034 </v>
   <v>      -0.00119944       0.00074128       0.00074128 </v>
   <v>       0.00125639       0.00018283       0.00018283 </v>
   <v>      -0.01917480       0.00000000       0.02230203 </v>
   <v>      -0.00116064      -0.00072896       0.00072896 </v>
   <v>      -0.00011501      -0.00075371      -0.00042451 </v>
   <v>      -0.01917480       0.02230203      -0.00000000 </v>
   <v>      -0.00218653       0.00000000      -0.00000000 </v>
   <v>       0.00000320       0.00014960      -0.00000000 </v>
   <v>       0.00075029       0.00000115      -0.00000000 </v>
   <v>      -0.00116064       0.00072896      -0.00072896 </v>
   <v>       0.00000320       0.00000000       0.00014960 </v>
   <v>       0.00052553       0.00003164       0.00003164 </v>
   <v>      -0.00011590       0.00072665      -0.00040824 </v>
   <v>      -0.00011501      -0.00042451      -0.00075371 </v>
   <v>       0.00075029       0.00000000       0.00000115 </v>
   <v>      -0.00011590      -0.00040824       0.00072665 </v>
   <v>       0.00008862       0.00000000      -0.00000000 </v>
  </varray>
  <varray name="stress" >
   <v>     -63.97969806       0.00000000      -0.00000000 </v>
   <v>       0.00000000     -63.98219540      -0.00000000 </v>
   <v>       0.00000000      -0.00000000     -63.98219540 </v>
  </varray>
  <energy>
   <i name="e_fr_energy">   -367.48337576 </i>
   <i name="e_wo_entrp">   -367.45404082 </i>
   <i name="e_0_energy">     -0.08800481 </i>
  </energy>
  <dynmat>
   <varray name="hessian" >
    <v>      -0.18085263       0.00000000       0.00000000       0.02192644       0.02541531      -0.00000000      -0.00021716      -0.00035108      -0.00000000       0.02192644       0.02541531      -0.00000000       0.02192644       0.00000000       0.02541531       0.00136574       0.00083010       0.00083010       0.00017009       0.00083010      -0.00045890      -0.00122129       0.00000000       0.00000000      -0.00021716       0.00000000      -0.00035108       0.00017009      -0.00045890       0.00083010      -0.00009995       0.00000000      -0.00000000       0.00017009      -0.00045890       0.00083010       0.02192644       0.00000000       0.02541531      -0.00122129      -0.00000000       0.00000000       0.00017009       0.00083010      -0.00045890       0.00136574       0.00083010       0.00083010      -0.00122129      -0.00000000       0.00000000       0.00017009       0.00083010       0.00045890       0.00136574       0.00083010      -0.00083010       0.02192644       0.00000000      -0.02541531       0.00017009       0.00045890       0.00083010      -0.00009037       0.00000000      -0.00000000       0.00017009       0.00045890      -0.00083010      -0.00080003       0.00000000      -0.00000000       0.00136574      -0.00083010       0.00083010       0.00017009      -0.00083010       0.00045890      -0.00058011       0.00000000      -0.00000000      -0.00006279       0.00000000      -0.00016198       0.02192644      -0.02541531      -0.00000000      -0.00080003      -0.00000000      -0.00000000      -0.00006279      -0.00016198      -0.00000000       0.00235468      -0.00000000       0.00000000      -0.00009995       0.00000000      -0.00000000       0.00017009      -0.00045890      -0.00083010      -0.00021716       0.00000000       0.00035108       0.00017009      -0.00045890      -0.00083010       0.00017009      -0.00083010      -0.00045890       0.00136574      -0.00083010      -0.00083010      -0.00006279       0.00000000       0.00016198      -0.00058011       0.00000000       0.00000000      -0.00021716       0.00035108      -0.00000000      -0.00006279       0.00016198      -0.00000000      -0.00075826       0.00000000       0.00000000      -0.00006279       0.00016198       0.00000000       0.00017009      -0.00083010      -0.00045890      -0.00058011      -0.00000000       0.00000000      -0.00006279      -0.00000000       0.00016198       0.00136574      -0.00083010      -0.00083010      -0.00122129      -0.00000000       0.00000000       0.02192644       0.00000000      -0.02541531       0.00136574       0.00083010      -0.00083010       0.00017009       0.00083010       0.00045890       0.02192644      -0.02541531       0.00000000       0.00235468      -0.00000000      -0.00000000      -0.00006279      -0.00016198       0.00000000      -0.00080003       0.00000000      -0.00000000       0.00136574      -0.00083010       0.00083010      -0.00006279      -0.00000000      -0.00016198      -0.00058011      -0.00000000       0.00000000       0.00017009      -0.00083010       0.00045890       0.00017009       0.00045890       0.00083010      -0.00080003       0.00000000      -0.00000000       0.00017009       0.00045890      -0.00083010      -0.00009037       0.00000000      -0.00000000 </v>
    <v>       0.00000000      -0.18085263       0.00000000       0.02541531       0.02192644       0.00000000      -0.00035108      -0.00021716      -0.00000000       0.02541531       0.02192644       0.00000000       0.00000000      -0.00122129      -0.00000000       0.00083010       0.00017009       0.00045890       0.00083010       0.00136574      -0.00083010      -0.00000000       0.02192644      -0.02541531       0.00000000      -0.00009995      -0.00000000      -0.00045890       0.00017009      -0.00083010       0.00000000      -0.00021716       0.00035108      -0.00045890       0.00017009      -0.00083010       0.00000000      -0.00122129      -0.00000000       0.00000000       0.02192644      -0.02541531       0.00083010       0.00136574      -0.00083010       0.00083010       0.00017009       0.00045890      -0.00000000       0.02192644       0.02541531       0.00083010       0.00136574       0.00083010       0.00083010       0.00017009      -0.00045890       0.00000000      -0.00122129      -0.00000000       0.00045890       0.00017009       0.00083010       0.00000000      -0.00009037      -0.00000000       0.00045890       0.00017009      -0.00083010       0.00000000      -0.00080003      -0.00000000      -0.00083010       0.00017009      -0.00045890      -0.00083010       0.00136574      -0.00083010      -0.00000000      -0.00006279       0.00016198      -0.00000000      -0.00058011      -0.00000000      -0.02541531       0.02192644       0.00000000       0.00000000       0.00235468      -0.00000000      -0.00016198      -0.00006279      -0.00000000      -0.00000000      -0.00080003      -0.00000000       0.00000000      -0.00021716      -0.00035108      -0.00045890       0.00017009       0.00083010       0.00000000      -0.00009995      -0.00000000      -0.00045890       0.00017009       0.00083010      -0.00083010       0.00136574       0.00083010      -0.00083010       0.00017009       0.00045890      -0.00000000      -0.00058011       0.00000000      -0.00000000      -0.00006279      -0.00016198       0.00035108      -0.00021716      -0.00000000       0.00016198      -0.00006279       0.00000000       0.00000000      -0.00075826       0.00000000       0.00016198      -0.00006279       0.00000000      -0.00083010       0.00136574       0.00083010       0.00000000      -0.00006279      -0.00016198       0.00000000      -0.00058011      -0.00000000      -0.00083010       0.00017009       0.00045890      -0.00000000       0.02192644       0.02541531       0.00000000      -0.00122129       0.00000000       0.00083010       0.00017009      -0.00045890       0.00083010       0.00136574       0.00083010      -0.02541531       0.02192644       0.00000000      -0.00000000      -0.00080003      -0.00000000      -0.00016198      -0.00006279       0.00000000      -0.00000000       0.00235468      -0.00000000      -0.00083010       0.00017009      -0.00045890       0.00000000      -0.00058011       0.00000000       0.00000000      -0.00006279       0.00016198      -0.00083010       0.00136574      -0.00083010       0.00045890       0.00017009       0.00083010       0.00000000      -0.00080003       0.00000000       0.00045890       0.00017009      -0.00083010       0.00000000      -0.00009037      -0.00000000 </v>
[...]
       <r>    24.2568     0.0000   648.0000 </r>
       <r>    24.5442     0.0000   648.0000 </r>
       <r>    24.8317     0.0000   648.0000 </r>
       <r>    25.1192     0.0000   648.0000 </r>
       <r>    25.4066     0.0000   648.0000 </r>
       <r>    25.6941     0.0000   648.0000 </r>
       <r>    25.9816     0.0000   648.0000 </r>
       <r>    26.2690     0.0000   648.0000 </r>
       <r>    26.5565     0.0000   648.0000 </r>
      </set>
      <set comment="spin 2">
       <r>   -59.6824     0.0000     0.0000 </r>
       <r>   -59.3949     0.0000     0.0000 </r>
       <r>   -59.1074     0.0000     0.0000 </r>
       <r>   -58.8200     0.0000     0.0000 </r>
       <r>   -58.5325     0.0000     0.0000 </r>
       <r>   -58.2450     0.0000     0.0000 </r>
       <r>   -57.9576     0.0000     0.0000 </r>
       <r>   -57.6701     0.0000     0.0000 </r>
       <r>   -57.3827     0.0000     0.0000 </r>
       <r>   -57.0952     0.0000     0.0000 </r>
       <r>   -56.8077    -0.0000    -0.0000 </r>
       <r>   -56.5203    -0.0000    -0.0000 </r>
       <r>   -56.2328    -0.0000    -0.0000 </r>
       <r>   -55.9453    -0.0000    -0.0000 </r>
       <r>   -55.6579    -0.0001    -0.0000 </r>
       <r>   -55.3704    -0.4867    -0.1400 </r>
       <r>   -55.0830   -12.9547    -3.8639 </r>
       <r>   -54.7955   360.3021    99.7095 </r>
       <r>   -54.5080   337.9641   196.8616 </r>
       <r>   -54.2206   -16.6534   192.0744 </r>
       <r>   -53.9331    -0.2587   192.0000 </r>
       <r>   -53.6456    -0.0000   192.0000 </r>
       <r>   -53.3582    -0.0000   192.0000 </r>
       <r>   -53.0707     0.0000   192.0000 </r>
       <r>   -52.7832     0.0000   192.0000 </r>
       <r>   -52.4958     0.0000   192.0000 </r>
       <r>   -52.2083     0.0000   192.0000 </r>
       <r>   -51.9209     0.0000   192.0000 </r>
       <r>   -51.6334     0.0000   192.0000 </r>
       <r>   -51.3459     0.0000   192.0000 </r>
       <r>   -51.0585     0.0000   192.0000 </r>
       <r>   -50.7710     0.0000   192.0000 </r>
       <r>   -50.4835     0.0000   192.0000 </r>
       <r>   -50.1961     0.0000   192.0000 </r>
       <r>   -49.9086     0.0000   192.0000 </r>
       <r>   -49.6212     0.0000   192.0000 </r>
       <r>   -49.3337     0.0000   192.0000 </r>
       <r>   -49.0462     0.0000   192.0000 </r>
       <r>   -48.7588     0.0000   192.0000 </r>
       <r>   -48.4713     0.0000   192.0000 </r>
       <r>   -48.1838     0.0000   192.0000 </r>
       <r>   -47.8964     0.0000   192.0000 </r>
       <r>   -47.6089     0.0000   192.0000 </r>
       <r>   -47.3215     0.0000   192.0000 </r>
       <r>   -47.0340     0.0000   192.0000 </r>
       <r>   -46.7465     0.0000   192.0000 </r>
       <r>   -46.4591     0.0000   192.0000 </r>
       <r>   -46.1716     0.0000   192.0000 </r>
       <r>   -45.8841     0.0000   192.0000 </r>
       <r>   -45.5967     0.0000   192.0000 </r>
       <r>   -45.3092     0.0000   192.0000 </r>
       <r>   -45.0218     0.0000   192.0000 </r>
       <r>   -44.7343     0.0000   192.0000 </r>
       <r>   -44.4468     0.0000   192.0000 </r>
       <r>   -44.1594     0.0000   192.0000 </r>
       <r>   -43.8719     0.0000   192.0000 </r>
       <r>   -43.5844     0.0000   192.0000 </r>
       <r>   -43.2970     0.0000   192.0000 </r>
       <r>   -43.0095     0.0000   192.0000 </r>
       <r>   -42.7220     0.0000   192.0000 </r>
       <r>   -42.4346     0.0000   192.0000 </r>
       <r>   -42.1471     0.0000   192.0000 </r>
       <r>   -41.8597     0.0000   192.0000 </r>
       <r>   -41.5722     0.0000   192.0000 </r>
       <r>   -41.2847     0.0000   192.0000 </r>
       <r>   -40.9973     0.0000   192.0000 </r>
       <r>   -40.7098     0.0000   192.0000 </r>
       <r>   -40.4223     0.0000   192.0000 </r>
       <r>   -40.1349     0.0000   192.0000 </r>
       <r>   -39.8474     0.0000   192.0000 </r>
       <r>   -39.5600     0.0000   192.0000 </r>
       <r>   -39.2725     0.0000   192.0000 </r>
       <r>   -38.9850     0.0000   192.0000 </r>
       <r>   -38.6976     0.0000   192.0000 </r>
       <r>   -38.4101     0.0000   192.0000 </r>
       <r>   -38.1226     0.0000   192.0000 </r>
       <r>   -37.8352     0.0000   192.0000 </r>
       <r>   -37.5477     0.0000   192.0000 </r>
       <r>   -37.2603     0.0000   192.0000 </r>
       <r>   -36.9728     0.0000   192.0000 </r>
       <r>   -36.6853     0.0000   192.0000 </r>
       <r>   -36.3979     0.0000   192.0000 </r>
       <r>   -36.1104     0.0000   192.0000 </r>
       <r>   -35.8229     0.0000   192.0000 </r>
       <r>   -35.5355     0.0000   192.0000 </r>
       <r>   -35.2480     0.0000   192.0000 </r>
       <r>   -34.9606     0.0000   192.0000 </r>
       <r>   -34.6731     0.0000   192.0000 </r>
       <r>   -34.3856     0.0000   192.0000 </r>
       <r>   -34.0982     0.0000   192.0000 </r>
       <r>   -33.8107     0.0000   192.0000 </r>
       <r>   -33.5232     0.0000   192.0000 </r>
       <r>   -33.2358     0.0000   192.0000 </r>
       <r>   -32.9483     0.0000   192.0000 </r>
       <r>   -32.6609     0.0000   192.0000 </r>
       <r>   -32.3734     0.0000   192.0000 </r>
       <r>   -32.0859     0.0000   192.0000 </r>
       <r>   -31.7985     0.0000   192.0000 </r>
       <r>   -31.5110     0.0000   192.0000 </r>
       <r>   -31.2235     0.0000   192.0000 </r>
       <r>   -30.9361     0.0000   192.0000 </r>
       <r>   -30.6486     0.0000   192.0000 </r>
       <r>   -30.3611     0.0000   192.0000 </r>
       <r>   -30.0737     0.0000   192.0000 </r>
       <r>   -29.7862     0.0000   192.0000 </r>
       <r>   -29.4988     0.0000   192.0000 </r>
       <r>   -29.2113     0.0000   192.0000 </r>
       <r>   -28.9238     0.0000   192.0000 </r>
       <r>   -28.6364     0.0000   192.0000 </r>
       <r>   -28.3489     0.0000   192.0000 </r>
       <r>   -28.0614     0.0000   192.0000 </r>
       <r>   -27.7740     0.0000   192.0000 </r>
       <r>   -27.4865     0.0000   192.0000 </r>
       <r>   -27.1991     0.0000   192.0000 </r>
       <r>   -26.9116     0.0000   192.0000 </r>
       <r>   -26.6241     0.0000   192.0000 </r>
       <r>   -26.3367     0.0000   192.0000 </r>
       <r>   -26.0492     0.0000   192.0000 </r>
       <r>   -25.7617     0.0000   192.0000 </r>
       <r>   -25.4743     0.0000   192.0000 </r>
       <r>   -25.1868     0.0000   192.0000 </r>
       <r>   -24.8994     0.0000   192.0000 </r>
       <r>   -24.6119     0.0000   192.0000 </r>
       <r>   -24.3244     0.0000   192.0000 </r>
       <r>   -24.0370     0.0000   192.0000 </r>
       <r>   -23.7495     0.0000   192.0000 </r>
       <r>   -23.4620     0.0000   192.0000 </r>
       <r>   -23.1746     0.0000   192.0000 </r>
       <r>   -22.8871     0.0000   192.0000 </r>
       <r>   -22.5997     0.0000   192.0000 </r>
       <r>   -22.3122     0.0000   192.0000 </r>
       <r>   -22.0247     0.0000   192.0000 </r>
       <r>   -21.7373     0.0000   192.0000 </r>
       <r>   -21.4498     0.0000   192.0000 </r>
       <r>   -21.1623     0.0000   192.0000 </r>
       <r>   -20.8749     0.0000   192.0000 </r>
       <r>   -20.5874     0.0000   192.0000 </r>
       <r>   -20.2999     0.0000   192.0000 </r>
       <r>   -20.0125     0.0000   192.0000 </r>
       <r>   -19.7250     0.0000   192.0000 </r>
       <r>   -19.4376     0.0000   192.0000 </r>
       <r>   -19.1501     0.0000   192.0000 </r>
       <r>   -18.8626     0.0000   192.0000 </r>
       <r>   -18.5752     0.0000   192.0000 </r>
       <r>   -18.2877     0.0000   192.0000 </r>
       <r>   -18.0002     0.0000   192.0000 </r>
       <r>   -17.7128     0.0000   192.0000 </r>
       <r>   -17.4253     0.0000   192.0000 </r>
       <r>   -17.1379     0.0000   192.0000 </r>
       <r>   -16.8504     0.0000   192.0000 </r>
       <r>   -16.5629     0.0000   192.0000 </r>
       <r>   -16.2755     0.0000   192.0000 </r>
       <r>   -15.9880     0.0000   192.0000 </r>
       <r>   -15.7005     0.0000   192.0000 </r>
       <r>   -15.4131     0.0000   192.0000 </r>
       <r>   -15.1256     0.0000   192.0000 </r>
       <r>   -14.8382     0.0000   192.0000 </r>
       <r>   -14.5507     0.0000   192.0000 </r>
       <r>   -14.2632     0.0000   192.0000 </r>
       <r>   -13.9758     0.0000   192.0000 </r>
       <r>   -13.6883     0.0000   192.0000 </r>
       <r>   -13.4008     0.0000   192.0000 </r>
       <r>   -13.1134     0.0000   192.0000 </r>
       <r>   -12.8259     0.0000   192.0000 </r>
       <r>   -12.5385     0.0000   192.0000 </r>
       <r>   -12.2510     0.0000   192.0000 </r>
       <r>   -11.9635     0.0000   192.0000 </r>
       <r>   -11.6761     0.0000   192.0000 </r>
       <r>   -11.3886     0.0000   192.0000 </r>
       <r>   -11.1011     0.0000   192.0000 </r>
       <r>   -10.8137     0.0000   192.0000 </r>
       <r>   -10.5262     0.0000   192.0000 </r>
       <r>   -10.2388     0.0000   192.0000 </r>
       <r>    -9.9513     0.0000   192.0000 </r>
       <r>    -9.6638     0.0000   192.0000 </r>
       <r>    -9.3764     0.0000   192.0000 </r>
       <r>    -9.0889     0.0000   192.0000 </r>
       <r>    -8.8014     0.0000   192.0000 </r>
       <r>    -8.5140     0.0000   192.0000 </r>
       <r>    -8.2265     0.0000   192.0000 </r>
       <r>    -7.9390     0.0000   192.0000 </r>
       <r>    -7.6516     0.0000   192.0000 </r>
       <r>    -7.3641     0.0000   192.0000 </r>
       <r>    -7.0767     0.0000   192.0000 </r>
       <r>    -6.7892     0.0000   192.0000 </r>
       <r>    -6.5017     0.0000   192.0000 </r>
       <r>    -6.2143     0.0000   192.0000 </r>
       <r>    -5.9268     0.0000   192.0000 </r>
       <r>    -5.6393     0.0000   192.0000 </r>
       <r>    -5.3519     0.0000   192.0000 </r>
       <r>    -5.0644     0.0000   192.0000 </r>
       <r>    -4.7770     0.0000   192.0000 </r>
       <r>    -4.4895     0.0000   192.0000 </r>
       <r>    -4.2020     0.0000   192.0000 </r>
       <r>    -3.9146     0.0000   192.0000 </r>
       <r>    -3.6271     0.0000   192.0000 </r>
       <r>    -3.3396     0.0000   192.0000 </r>
       <r>    -3.0522     0.0000   192.0000 </r>
       <r>    -2.7647    -0.0000   192.0000 </r>
       <r>    -2.4773    -0.0000   192.0000 </r>
       <r>    -2.1898    -0.0000   192.0000 </r>
       <r>    -1.9023    -0.0000   192.0000 </r>
       <r>    -1.6149    -0.0000   192.0000 </r>
       <r>    -1.3274    -0.0021   191.9994 </r>
       <r>    -1.0399     0.0042   192.0006 </r>
       <r>    -0.7525     0.5669   192.1636 </r>
       <r>    -0.4650     1.2499   192.5228 </r>
       <r>    -0.1776     1.8959   193.0678 </r>
       <r>     0.1099     1.8921   193.6117 </r>
       <r>     0.3974     2.7698   194.4080 </r>
       <r>     0.6848     2.4703   195.1181 </r>
       <r>     0.9723     3.7136   196.1856 </r>
       <r>     1.2598     3.0132   197.0518 </r>
       <r>     1.5472     4.4649   198.3353 </r>
       <r>     1.8347     3.9861   199.4811 </r>
       <r>     2.1222     4.9903   200.9157 </r>
       <r>     2.4096     6.0216   202.6466 </r>
       <r>     2.6971     5.0813   204.1073 </r>
       <r>     2.9845     8.4355   206.5322 </r>
       <r>     3.2720     8.2862   208.9142 </r>
       <r>     3.5595    11.3609   212.1800 </r>
       <r>     3.8469    20.2653   218.0055 </r>
       <r>     4.1344    29.0746   226.3634 </r>
       <r>     4.4219    31.3904   235.3870 </r>
       <r>     4.7093    38.2346   246.3780 </r>
       <r>     4.9968    52.7152   261.5317 </r>
       <r>     5.2842    51.3634   276.2967 </r>
       <r>     5.5717    48.1373   290.1344 </r>
       <r>     5.8592    52.7611   305.3012 </r>
       <r>     6.1466    67.7373   324.7732 </r>
       <r>     6.4341    77.3897   347.0199 </r>
       <r>     6.7216    85.4147   371.5734 </r>
       <r>     7.0090    81.1470   394.9002 </r>
       <r>     7.2965    59.2754   411.9396 </r>
       <r>     7.5839    74.7053   433.4146 </r>
       <r>     7.8714    75.0150   454.9787 </r>
       <r>     8.1589    65.3797   473.7729 </r>
       <r>     8.4463    90.7319   499.8549 </r>
       <r>     8.7338    92.4120   526.4200 </r>
       <r>     9.0213    22.8645   532.9927 </r>
       <r>     9.3087     7.9548   535.2794 </r>
       <r>     9.5962    14.0457   539.3170 </r>
       <r>     9.8836     8.5049   541.7618 </r>
       <r>    10.1711    11.0054   544.9254 </r>
       <r>    10.4586     8.6571   547.4140 </r>
       <r>    10.7460     9.6494   550.1879 </r>
       <r>    11.0335     9.4788   552.9127 </r>
       <r>    11.3210     8.4683   555.3470 </r>
       <r>    11.6084     6.1564   557.1168 </r>
       <r>    11.8959     9.9508   559.9773 </r>
       <r>    12.1833     7.8424   562.2317 </r>
       <r>    12.4708     5.2300   563.7351 </r>
       <r>    12.7583     6.1813   565.5120 </r>
       <r>    13.0457     7.1498   567.5673 </r>
       <r>    13.3332     5.8443   569.2473 </r>
       <r>    13.6207     4.1868   570.4509 </r>
       <r>    13.9081     3.8624   571.5612 </r>
       <r>    14.1956     4.8797   572.9639 </r>
       <r>    14.4831     3.3328   573.9219 </r>
       <r>    14.7705     2.9064   574.7574 </r>
       <r>    15.0580     8.9810   577.3391 </r>
       <r>    15.3454    10.5169   580.3624 </r>
       <r>    15.6329    11.5330   583.6777 </r>
       <r>    15.9204     8.9631   586.2542 </r>
       <r>    16.2078     7.9269   588.5329 </r>
       <r>    16.4953     8.8176   591.0676 </r>
       <r>    16.7828     8.2027   593.4256 </r>
       <r>    17.0702     8.7695   595.9465 </r>
       <r>    17.3577     6.1342   597.7099 </r>
       <r>    17.6451     5.9685   599.4256 </r>
       <r>    17.9326     6.9599   601.4263 </r>
       <r>    18.2201     8.8371   603.9666 </r>
       <r>    18.5075     9.3287   606.6483 </r>
       <r>    18.7950     9.0947   609.2627 </r>
       <r>    19.0825    10.3482   612.2374 </r>
       <r>    19.3699    12.5016   615.8311 </r>
       <r>    19.6574     8.5134   618.2784 </r>
       <r>    19.9448    12.2168   621.7903 </r>
       <r>    20.2323    12.7963   625.4688 </r>
       <r>    20.5198    11.4539   628.7613 </r>
       <r>    20.8072    11.0700   631.9436 </r>
       <r>    21.0947    10.4091   634.9358 </r>
       <r>    21.3822    11.1430   638.1390 </r>
       <r>    21.6696    12.7617   641.8075 </r>
       <r>    21.9571    11.7357   645.1811 </r>
       <r>    22.2445     7.6854   647.3903 </r>
       <r>    22.5320     1.7927   647.9057 </r>
       <r>    22.8195     0.3366   648.0024 </r>
       <r>    23.1069    -0.0074   648.0003 </r>
       <r>    23.3944    -0.0011   648.0000 </r>
       <r>    23.6819    -0.0000   648.0000 </r>
       <r>    23.9693    -0.0000   648.0000 </r>
       <r>    24.2568     0.0000   648.0000 </r>
       <r>    24.5442     0.0000   648.0000 </r>
       <r>    24.8317     0.0000   648.0000 </r>
       <r>    25.1192     0.0000   648.0000 </r>
       <r>    25.4066     0.0000   648.0000 </r>
       <r>    25.6941     0.0000   648.0000 </r>
       <r>    25.9816     0.0000   648.0000 </r>
       <r>    26.2690     0.0000   648.0000 </r>
       <r>    26.5565     0.0000   648.0000 </r>
      </set>
     </set>
    </array>
   </total>
  </dos>
 </calculation>
 <structure name="finalpos" >
  <crystal>
   <varray name="basis" >
    <v>       0.00000000       6.94425000       6.94425000 </v>
    <v>       6.94425000       0.00000000       6.94425000 </v>
    <v>       6.94425000       6.94425000       0.00000000 </v>
   </varray>
   <i name="volume">    669.73969208 </i>
   <varray name="rec_basis" >
    <v>      -0.07200202       0.07200202       0.07200202 </v>
    <v>       0.07200202      -0.07200202       0.07200202 </v>
    <v>       0.07200202       0.07200202      -0.07200202 </v>
   </varray>
  </crystal>
  <varray name="positions" >
   <v>       0.00108003      -0.00108003      -0.00108003 </v>
   <v>       0.00000000       0.00000000       0.25000000 </v>
   <v>       0.00000000       0.00000000       0.50000000 </v>
   <v>       0.00000000       0.00000000       0.75000000 </v>
   <v>       0.00000000       0.25000000       0.00000000 </v>
   <v>       0.00000000       0.25000000       0.25000000 </v>
   <v>       0.00000000       0.25000000       0.50000000 </v>
   <v>       0.00000000       0.25000000       0.75000000 </v>
   <v>       0.00000000       0.50000000       0.00000000 </v>
   <v>       0.00000000       0.50000000       0.25000000 </v>
   <v>       0.00000000       0.50000000       0.50000000 </v>
   <v>       0.00000000       0.50000000       0.75000000 </v>
   <v>       0.00000000       0.75000000       0.00000000 </v>
   <v>       0.00000000       0.75000000       0.25000000 </v>
   <v>       0.00000000       0.75000000       0.50000000 </v>
   <v>       0.00000000       0.75000000       0.75000000 </v>
   <v>       0.25000000       0.00000000       0.00000000 </v>
   <v>       0.25000000       0.00000000       0.25000000 </v>
   <v>       0.25000000       0.00000000       0.50000000 </v>
   <v>       0.25000000       0.00000000       0.75000000 </v>
   <v>       0.25000000       0.25000000       0.00000000 </v>
   <v>       0.25000000       0.25000000       0.25000000 </v>
   <v>       0.25000000       0.25000000       0.50000000 </v>
   <v>       0.25000000       0.25000000       0.75000000 </v>
   <v>       0.25000000       0.50000000       0.00000000 </v>
   <v>       0.25000000       0.50000000       0.25000000 </v>
   <v>       0.25000000       0.50000000       0.50000000 </v>
   <v>       0.25000000       0.50000000       0.75000000 </v>
   <v>       0.25000000       0.75000000       0.00000000 </v>
   <v>       0.25000000       0.75000000       0.25000000 </v>
   <v>       0.25000000       0.75000000       0.50000000 </v>
   <v>       0.25000000       0.75000000       0.75000000 </v>
   <v>       0.50000000       0.00000000       0.00000000 </v>
   <v>       0.50000000       0.00000000       0.25000000 </v>
   <v>       0.50000000       0.00000000       0.50000000 </v>
   <v>       0.50000000       0.00000000       0.75000000 </v>
   <v>       0.50000000       0.25000000       0.00000000 </v>
   <v>       0.50000000       0.25000000       0.25000000 </v>
   <v>       0.50000000       0.25000000       0.50000000 </v>
   <v>       0.50000000       0.25000000       0.75000000 </v>
   <v>       0.50000000       0.50000000       0.00000000 </v>
   <v>       0.50000000       0.50000000       0.25000000 </v>
   <v>       0.50000000       0.50000000       0.50000000 </v>
   <v>       0.50000000       0.50000000       0.75000000 </v>
   <v>       0.50000000       0.75000000       0.00000000 </v>
   <v>       0.50000000       0.75000000       0.25000000 </v>
   <v>       0.50000000       0.75000000       0.50000000 </v>
   <v>       0.50000000       0.75000000       0.75000000 </v>
   <v>       0.75000000       0.00000000       0.00000000 </v>
   <v>       0.75000000       0.00000000       0.25000000 </v>
   <v>       0.75000000       0.00000000       0.50000000 </v>
   <v>       0.75000000       0.00000000       0.75000000 </v>
   <v>       0.75000000       0.25000000       0.00000000 </v>
   <v>       0.75000000       0.25000000       0.25000000 </v>
   <v>       0.75000000       0.25000000       0.50000000 </v>
   <v>       0.75000000       0.25000000       0.75000000 </v>
   <v>       0.75000000       0.50000000       0.00000000 </v>
   <v>       0.75000000       0.50000000       0.25000000 </v>
   <v>       0.75000000       0.50000000       0.50000000 </v>
   <v>       0.75000000       0.50000000       0.75000000 </v>
   <v>       0.75000000       0.75000000       0.00000000 </v>
   <v>       0.75000000       0.75000000       0.25000000 </v>
   <v>       0.75000000       0.75000000       0.50000000 </v>
   <v>       0.75000000       0.75000000       0.75000000 </v>
  </varray>
 </structure>
</modeling>
