       N       E                     dE             d eps       ncg     rms          rms(c)
DAV:   1     0.131576725319E+05    0.13158E+05   -0.56605E+05 30680   0.180E+03
DAV:   2     0.648539136933E+03   -0.12509E+05   -0.12141E+05 25920   0.612E+02
DAV:   3    -0.357855505833E+03   -0.10064E+04   -0.82729E+03 26952   0.182E+02
DAV:   4    -0.410842758943E+03   -0.52987E+02   -0.51593E+02 27848   0.403E+01
DAV:   5    -0.411657942079E+03   -0.81518E+00   -0.81448E+00 27376   0.483E+00    0.680E+01
DAV:   6    -0.398130558487E+03    0.13527E+02   -0.71429E+02 27200   0.725E+01    0.662E+01
DAV:   7    -0.351579054615E+03    0.46552E+02   -0.16573E+02 27088   0.351E+01    0.582E+00
DAV:   8    -0.351823096965E+03   -0.24404E+00   -0.18069E+00 27000   0.268E+00    0.313E+00
DAV:   9    -0.351807558061E+03    0.15539E-01   -0.27799E-01 27656   0.892E-01    0.954E-01
DAV:  10    -0.351812585253E+03   -0.50272E-02   -0.13003E-02 29184   0.179E-01    0.263E-01
DAV:  11    -0.351813675374E+03   -0.10901E-02   -0.34942E-03 27144   0.140E-01    0.965E-02
DAV:  12    -0.351813982539E+03   -0.30717E-03   -0.33913E-04 28960   0.367E-02    0.409E-02
DAV:  13    -0.351813970420E+03    0.12119E-04   -0.87333E-05 27776   0.219E-02    0.128E-02
DAV:  14    -0.351813966532E+03    0.38886E-05   -0.31596E-06 18584   0.302E-03    0.104E-02
DAV:  15    -0.351813956886E+03    0.96461E-05   -0.29043E-06 18208   0.448E-03    0.389E-03
DAV:  16    -0.351813955379E+03    0.15069E-05   -0.23521E-07 13560   0.106E-03    0.112E-03
DAV:  17    -0.351813955306E+03    0.73022E-07   -0.33989E-08 13560   0.365E-04
   1 F= -.35181396E+03 E0= -.35171027E+03  d E =-.311065E+00  mag=    44.7102
 Found     1 degrees of freedom:
       N       E                     dE             d eps       ncg     rms          rms(c)
DAV:   1    -0.351738477107E+03    0.75478E-01   -0.25183E+00 62064   0.147E+01    0.471E-01
DAV:   2    -0.351814648731E+03   -0.76172E-01   -0.74272E-01 47768   0.149E+00    0.121E+00
DAV:   3    -0.351815903831E+03   -0.12551E-02   -0.28791E-02 57736   0.743E-01    0.109E+00
DAV:   4    -0.351815983928E+03   -0.80097E-04   -0.46955E-03 55808   0.511E-01    0.105E+00
DAV:   5    -0.351813782123E+03    0.22018E-02   -0.15141E-03 50744   0.358E-01    0.186E-01
DAV:   6    -0.351813780831E+03    0.12921E-05   -0.27238E-04 61952   0.786E-02    0.144E-01
DAV:   7    -0.351813749317E+03    0.31514E-04   -0.59452E-05 51544   0.509E-02    0.130E-01
DAV:   8    -0.351813729826E+03    0.19491E-04   -0.47291E-05 51200   0.528E-02    0.120E-01
DAV:   9    -0.351813773563E+03   -0.43737E-04   -0.11008E-04 51784   0.905E-02    0.213E-01
DAV:  10    -0.351813649660E+03    0.12390E-03   -0.12372E-04 60752   0.935E-02    0.474E-02
DAV:  11    -0.351813656185E+03   -0.65250E-05   -0.33797E-05 62304   0.306E-02    0.652E-02
DAV:  12    -0.351813652666E+03    0.35196E-05   -0.12948E-05 52776   0.280E-02    0.439E-02
DAV:  13    -0.351813649244E+03    0.34214E-05   -0.53875E-06 47128   0.186E-02    0.129E-02
DAV:  14    -0.351813650175E+03   -0.93016E-06   -0.16154E-06 26144   0.924E-03
   2 F= -.35181365E+03 E0= -.35170997E+03  d E =-.311048E+00  mag=    44.7102
       N       E                     dE             d eps       ncg     rms          rms(c)
DAV:   1    -0.351548470376E+03    0.26518E+00   -0.81589E+00 62400   0.261E+01    0.910E-01
DAV:   2    -0.351832967942E+03   -0.28450E+00   -0.26185E+00 48096   0.271E+00    0.350E+00
DAV:   3    -0.351816669934E+03    0.16298E-01   -0.12301E-01 55544   0.141E+00    0.135E+00
DAV:   4    -0.351826489198E+03   -0.98193E-02   -0.20530E-02 58216   0.109E+00    0.249E+00
DAV:   5    -0.351814337548E+03    0.12152E-01   -0.90055E-03 50656   0.817E-01    0.526E-01
DAV:   6    -0.351814049172E+03    0.28838E-03   -0.14149E-03 60496   0.210E-01    0.255E-01
DAV:   7    -0.351814028800E+03    0.20372E-04   -0.37402E-04 52888   0.120E-01    0.279E-01
DAV:   8    -0.351813873131E+03    0.15567E-03   -0.21625E-04 51184   0.113E-01    0.210E-01
DAV:   9    -0.351813954577E+03   -0.81446E-04   -0.26832E-04 51608   0.137E-01    0.314E-01
DAV:  10    -0.351813856420E+03    0.98156E-04   -0.39721E-04 56912   0.174E-01    0.341E-01
DAV:  11    -0.351813645282E+03    0.21114E-03   -0.23149E-04 59712   0.114E-01    0.577E-02
DAV:  12    -0.351813677269E+03   -0.31987E-04   -0.68522E-05 67816   0.559E-02    0.120E-01
DAV:  13    -0.351813649621E+03    0.27648E-04   -0.36263E-05 50520   0.502E-02    0.308E-02
DAV:  14    -0.351813654061E+03   -0.44398E-05   -0.10833E-05 56560   0.218E-02    0.518E-02
DAV:  15    -0.351813649412E+03    0.46490E-05   -0.51786E-06 37760   0.187E-02    0.116E-02
DAV:  16    -0.351813649840E+03   -0.42794E-06   -0.12334E-06 24320   0.817E-03
   3 F= -.35181365E+03 E0= -.35170997E+03  d E =-.311048E+00  mag=    44.7103
