 vasp.5.4.1 05Feb16 (build Oct 12 2016 17:31:35) complex                        
  
 executed on           IFC91_ompi date 2020.09.07  22:42:49
 running on    4 total cores
 distrk:  each k-point on    4 cores,    1 groups
 distr:  one band on NCORES_PER_BAND=   1 cores,    4 groups


--------------------------------------------------------------------------------------------------------


 INCAR:
 POTCAR:   PAW_PBE Ni_pv 06Sep2000                
 POTCAR:   PAW_PBE Ni_pv 06Sep2000                
  local pseudopotential read in
  partial core-charges read in
  atomic valenz-charges read in
  non local Contribution for L=           1  read in
    real space projection operators read in
  non local Contribution for L=           1  read in
    real space projection operators read in
  non local Contribution for L=           2  read in
    real space projection operators read in
  non local Contribution for L=           2  read in
    real space projection operators read in
  non local Contribution for L=           0  read in
    real space projection operators read in
  non local Contribution for L=           0  read in
    real space projection operators read in
    PAW grid and wavefunctions read in
 
   number of l-projection  operators is LMAX  =           6
   number of lm-projection operators is LMMAX =          18
 
 Optimization of the real space projectors (new method)

 maximal supplied QI-value         = 18.90
 optimisation between [QCUT,QGAM] = [  9.83, 19.65] = [ 27.04,108.16] Ry 
 Optimized for a Real-space Cutoff    1.44 Angstroem

   l    n(q)    QCUT    max X(q) W(low)/X(q) W(high)/X(q)  e(spline) 
   1      8     9.827     3.231    0.38E-04    0.39E-04    0.57E-07
   1      8     9.827     4.241    0.57E-04    0.19E-03    0.30E-06
   2      7     9.827     3.566    0.29E-04    0.66E-04    0.48E-07
   2      7     9.827    20.429    0.17E-03    0.37E-03    0.30E-06
   0      8     9.827    19.799    0.18E-04    0.76E-05    0.78E-08
   0      8     9.827    52.283    0.39E-04    0.68E-04    0.44E-07
 PAW_PBE Ni_pv 06Sep2000                :
 energy of atom  1       EATOM=-3500.3496
 kinetic energy error for atom=    0.1419 (will be added to EATOM!!)
 
 
 POSCAR: Supercell by Yi Wang                    
  positions in direct lattice
  No initial velocities read in
 exchange correlation table for  LEXCH =        8
   RHO(1)=    0.500       N(1)  =     2000
   RHO(2)=  100.500       N(2)  =     4000
 


--------------------------------------------------------------------------------------------------------


 ion  position               nearest neighbor table
   1  0.000  0.000  0.000-
   2  0.000  0.000  0.250-
   3  0.000  0.000  0.500-
   4  0.000  0.000  0.750-
   5  0.000  0.250  0.000-
   6  0.000  0.250  0.250-
   7  0.000  0.250  0.500-
   8  0.000  0.250  0.750-
   9  0.000  0.500  0.000-
  10  0.000  0.500  0.250-
  11  0.000  0.500  0.500-
  12  0.000  0.500  0.750-
  13  0.000  0.750  0.000-
  14  0.000  0.750  0.250-
  15  0.000  0.750  0.500-
  16  0.000  0.750  0.750-
  17  0.250  0.000  0.000-
  18  0.250  0.000  0.250-
  19  0.250  0.000  0.500-
  20  0.250  0.000  0.750-
  21  0.250  0.250  0.000-
  22  0.250  0.250  0.250-
  23  0.250  0.250  0.500-
  24  0.250  0.250  0.750-
  25  0.250  0.500  0.000-
  26  0.250  0.500  0.250-
  27  0.250  0.500  0.500-
  28  0.250  0.500  0.750-
  29  0.250  0.750  0.000-
  30  0.250  0.750  0.250-
  31  0.250  0.750  0.500-
  32  0.250  0.750  0.750-
  33  0.500  0.000  0.000-
  34  0.500  0.000  0.250-
  35  0.500  0.000  0.500-
  36  0.500  0.000  0.750-
  37  0.500  0.250  0.000-
  38  0.500  0.250  0.250-
  39  0.500  0.250  0.500-
  40  0.500  0.250  0.750-
  41  0.500  0.500  0.000-
  42  0.500  0.500  0.250-
  43  0.500  0.500  0.500-
  44  0.500  0.500  0.750-
  45  0.500  0.750  0.000-
  46  0.500  0.750  0.250-
  47  0.500  0.750  0.500-
  48  0.500  0.750  0.750-
  49  0.750  0.000  0.000-
  50  0.750  0.000  0.250-
  51  0.750  0.000  0.500-
  52  0.750  0.000  0.750-
  53  0.750  0.250  0.000-
  54  0.750  0.250  0.250-
  55  0.750  0.250  0.500-
  56  0.750  0.250  0.750-
  57  0.750  0.500  0.000-
  58  0.750  0.500  0.250-
  59  0.750  0.500  0.500-
  60  0.750  0.500  0.750-
  61  0.750  0.750  0.000-
  62  0.750  0.750  0.250-
  63  0.750  0.750  0.500-
  64  0.750  0.750  0.750-
 
  LATTYP: Found a face centered cubic cell.
 ALAT       =    15.1575000000
  
  Lattice vectors:
  
 A1 = (   0.0000000000,   7.5787500000,   7.5787500000)
 A2 = (   7.5787500000,   0.0000000000,   7.5787500000)
 A3 = (   7.5787500000,   7.5787500000,   0.0000000000)


Analysis of symmetry for initial positions (statically):
=====================================================================
 Subroutine PRICEL returns following result:
 
  LATTYP: Found a face centered cubic cell.
 ALAT       =     3.7893750000
  
  Lattice vectors:
  
 A1 = (   0.0000000000,   1.8946875000,   1.8946875000)
 A2 = (   1.8946875000,   0.0000000000,   1.8946875000)
 A3 = (   1.8946875000,   1.8946875000,   0.0000000000)
 
  64 primitive cells build up your supercell.
 

 Routine SETGRP: Setting up the symmetry group for a 
 face centered cubic supercell.


 Subroutine GETGRP returns: Found 48 space group operations
 (whereof 48 operations were pure point group operations)
 out of a pool of 48 trial point group operations.


The static configuration has the point symmetry O_h .


Analysis of symmetry for dynamics (positions and initial velocities):
=====================================================================
 Subroutine PRICEL returns following result:
 
  LATTYP: Found a face centered cubic cell.
 ALAT       =     3.7893750000
  
  Lattice vectors:
  
 A1 = (   0.0000000000,   1.8946875000,   1.8946875000)
 A2 = (   1.8946875000,   0.0000000000,   1.8946875000)
 A3 = (   1.8946875000,   1.8946875000,   0.0000000000)
 
  64 primitive cells build up your supercell.
 

 Routine SETGRP: Setting up the symmetry group for a 
 face centered cubic supercell.


 Subroutine GETGRP returns: Found 48 space group operations
 (whereof 48 operations were pure point group operations)
 out of a pool of 48 trial point group operations.


The dynamic configuration has the point symmetry O_h .


Analysis of structural, dynamic, and magnetic symmetry:
=====================================================================
 Subroutine PRICEL returns following result:
 
  LATTYP: Found a face centered cubic cell.
 ALAT       =     3.7893750000
  
  Lattice vectors:
  
 A1 = (   0.0000000000,   1.8946875000,   1.8946875000)
 A2 = (   1.8946875000,   0.0000000000,   1.8946875000)
 A3 = (   1.8946875000,   1.8946875000,   0.0000000000)
 
  64 primitive cells build up your supercell.
 

 Routine SETGRP: Setting up the symmetry group for a 
 face centered cubic supercell.


 Subroutine GETGRP returns: Found 48 space group operations
 (whereof 48 operations were pure point group operations)
 out of a pool of 48 trial point group operations.


The magnetic configuration has the point symmetry O_h .


 Subroutine INISYM returns: Found 48 space group operations
 (whereof 48 operations are pure point group operations),
 and found    64 'primitive' translations

 
 
 KPOINTS: Zr 15x15x15                             

Automatic generation of k-mesh.
Space group operators:
 irot       det(A)        alpha          n_x          n_y          n_z        tau_x        tau_y        tau_z
    1     1.000000     0.000001     1.000000     0.000000     0.000000     0.000000     0.000000     0.000000
    2    -1.000000     0.000001     1.000000     0.000000     0.000000     0.000000     0.000000     0.000000
    3     1.000000   120.000000    -0.577350    -0.577350    -0.577350     0.000000     0.000000     0.000000
    4    -1.000000   120.000000    -0.577350    -0.577350    -0.577350     0.000000     0.000000     0.000000
    5     1.000000   120.000000     0.577350     0.577350     0.577350     0.000000     0.000000     0.000000
    6    -1.000000   120.000000     0.577350     0.577350     0.577350     0.000000     0.000000     0.000000
    7     1.000000    90.000000     0.000000     0.000000    -1.000000     0.000000     0.000000     0.000000
    8    -1.000000    90.000000     0.000000     0.000000    -1.000000     0.000000     0.000000     0.000000
    9     1.000000   180.000000     0.000000     0.707107     0.707107     0.000000     0.000000     0.000000
   10    -1.000000   180.000000     0.000000     0.707107     0.707107     0.000000     0.000000     0.000000
   11     1.000000    90.000000     0.000000     1.000000     0.000000     0.000000     0.000000     0.000000
   12    -1.000000    90.000000     0.000000     1.000000     0.000000     0.000000     0.000000     0.000000
   13     1.000000   180.000000     0.000000     0.000000     1.000000     0.000000     0.000000     0.000000
   14    -1.000000   180.000000     0.000000     0.000000     1.000000     0.000000     0.000000     0.000000
   15     1.000000   120.000000    -0.577350     0.577350     0.577350     0.000000     0.000000     0.000000
   16    -1.000000   120.000000    -0.577350     0.577350     0.577350     0.000000     0.000000     0.000000
   17     1.000000   120.000000    -0.577350     0.577350    -0.577350     0.000000     0.000000     0.000000
   18    -1.000000   120.000000    -0.577350     0.577350    -0.577350     0.000000     0.000000     0.000000
   19     1.000000    90.000000     0.000000     0.000000     1.000000     0.000000     0.000000     0.000000
   20    -1.000000    90.000000     0.000000     0.000000     1.000000     0.000000     0.000000     0.000000
   21     1.000000    90.000000    -1.000000     0.000000     0.000000     0.000000     0.000000     0.000000
   22    -1.000000    90.000000    -1.000000     0.000000     0.000000     0.000000     0.000000     0.000000
   23     1.000000   180.000000     0.707107     0.000000     0.707107     0.000000     0.000000     0.000000
   24    -1.000000   180.000000     0.707107     0.000000     0.707107     0.000000     0.000000     0.000000
   25     1.000000   120.000000     0.577350    -0.577350     0.577350     0.000000     0.000000     0.000000
   26    -1.000000   120.000000     0.577350    -0.577350     0.577350     0.000000     0.000000     0.000000
   27     1.000000   120.000000    -0.577350    -0.577350     0.577350     0.000000     0.000000     0.000000
   28    -1.000000   120.000000    -0.577350    -0.577350     0.577350     0.000000     0.000000     0.000000
   29     1.000000   180.000000     1.000000     0.000000     0.000000     0.000000     0.000000     0.000000
   30    -1.000000   180.000000     1.000000     0.000000     0.000000     0.000000     0.000000     0.000000
   31     1.000000    90.000000     0.000000    -1.000000     0.000000     0.000000     0.000000     0.000000
   32    -1.000000    90.000000     0.000000    -1.000000     0.000000     0.000000     0.000000     0.000000
   33     1.000000   180.000000     0.707107     0.707107     0.000000     0.000000     0.000000     0.000000
   34    -1.000000   180.000000     0.707107     0.707107     0.000000     0.000000     0.000000     0.000000
   35     1.000000    90.000000     1.000000     0.000000     0.000000     0.000000     0.000000     0.000000
   36    -1.000000    90.000000     1.000000     0.000000     0.000000     0.000000     0.000000     0.000000
   37     1.000000   120.000000     0.577350    -0.577350    -0.577350     0.000000     0.000000     0.000000
   38    -1.000000   120.000000     0.577350    -0.577350    -0.577350     0.000000     0.000000     0.000000
   39     1.000000   180.000000     0.000000     1.000000     0.000000     0.000000     0.000000     0.000000
   40    -1.000000   180.000000     0.000000     1.000000     0.000000     0.000000     0.000000     0.000000
   41     1.000000   120.000000     0.577350     0.577350    -0.577350     0.000000     0.000000     0.000000
   42    -1.000000   120.000000     0.577350     0.577350    -0.577350     0.000000     0.000000     0.000000
   43     1.000000   180.000000     0.000000    -0.707107     0.707107     0.000000     0.000000     0.000000
   44    -1.000000   180.000000     0.000000    -0.707107     0.707107     0.000000     0.000000     0.000000
   45     1.000000   180.000000     0.707107    -0.707107     0.000000     0.000000     0.000000     0.000000
   46    -1.000000   180.000000     0.707107    -0.707107     0.000000     0.000000     0.000000     0.000000
   47     1.000000   180.000000     0.707107     0.000000    -0.707107     0.000000     0.000000     0.000000
   48    -1.000000   180.000000     0.707107     0.000000    -0.707107     0.000000     0.000000     0.000000
 
 Subroutine IBZKPT returns following result:
 ===========================================
 
 Found     10 irreducible k-points:
 
 Following reciprocal coordinates:
            Coordinates               Weight
  0.000000  0.000000  0.000000      1.000000
  0.200000  0.000000  0.000000      8.000000
  0.400000  0.000000  0.000000      8.000000
  0.200000  0.200000  0.000000      6.000000
  0.400000  0.200000  0.000000     24.000000
 -0.400000  0.200000  0.000000     24.000000
 -0.200000  0.200000  0.000000     12.000000
  0.400000  0.400000  0.000000      6.000000
 -0.400000  0.400000  0.000000     12.000000
 -0.400000  0.400000  0.200000     24.000000
 
 Following cartesian coordinates:
            Coordinates               Weight
  0.000000  0.000000  0.000000      1.000000
 -0.013195  0.013195  0.013195      8.000000
 -0.026390  0.026390  0.026390      8.000000
  0.000000  0.000000  0.026390      6.000000
 -0.013195  0.013195  0.039584     24.000000
  0.039584 -0.039584 -0.013195     24.000000
  0.026390 -0.026390  0.000000     12.000000
  0.000000  0.000000  0.052779      6.000000
  0.052779 -0.052779  0.000000     12.000000
  0.065974 -0.039584 -0.013195     24.000000
 
 
 Subroutine IBZKPT_HF returns following result:
 ==============================================
 
 Found    125 k-points in 1st BZ
 the following    125 k-points will be used (e.g. in the exchange kernel)
 Following reciprocal coordinates:   # in IRBZ
  0.000000  0.000000  0.000000    0.00800000   1 t-inv F
  0.200000  0.000000  0.000000    0.00800000   2 t-inv F
  0.400000  0.000000  0.000000    0.00800000   3 t-inv F
  0.200000  0.200000  0.000000    0.00800000   4 t-inv F
  0.400000  0.200000  0.000000    0.00800000   5 t-inv F
 -0.400000  0.200000  0.000000    0.00800000   6 t-inv F
 -0.200000  0.200000  0.000000    0.00800000   7 t-inv F
  0.400000  0.400000  0.000000    0.00800000   8 t-inv F
 -0.400000  0.400000  0.000000    0.00800000   9 t-inv F
 -0.400000  0.400000  0.200000    0.00800000  10 t-inv F
 -0.200000  0.000000  0.000000    0.00800000   2 t-inv F
  0.000000  0.200000  0.000000    0.00800000   2 t-inv F
  0.000000 -0.200000  0.000000    0.00800000   2 t-inv F
  0.000000  0.000000  0.200000    0.00800000   2 t-inv F
  0.000000  0.000000 -0.200000    0.00800000   2 t-inv F
  0.200000  0.200000  0.200000    0.00800000   2 t-inv F
 -0.200000 -0.200000 -0.200000    0.00800000   2 t-inv F
 -0.400000  0.000000  0.000000    0.00800000   3 t-inv F
  0.000000  0.400000  0.000000    0.00800000   3 t-inv F
  0.000000 -0.400000  0.000000    0.00800000   3 t-inv F
  0.000000  0.000000  0.400000    0.00800000   3 t-inv F
  0.000000  0.000000 -0.400000    0.00800000   3 t-inv F
  0.400000  0.400000  0.400000    0.00800000   3 t-inv F
 -0.400000 -0.400000 -0.400000    0.00800000   3 t-inv F
 -0.200000 -0.200000  0.000000    0.00800000   4 t-inv F
  0.000000  0.200000  0.200000    0.00800000   4 t-inv F
  0.000000 -0.200000 -0.200000    0.00800000   4 t-inv F
  0.200000  0.000000  0.200000    0.00800000   4 t-inv F
 -0.200000  0.000000 -0.200000    0.00800000   4 t-inv F
 -0.400000 -0.200000  0.000000    0.00800000   5 t-inv F
  0.000000  0.400000  0.200000    0.00800000   5 t-inv F
  0.000000 -0.400000 -0.200000    0.00800000   5 t-inv F
  0.200000  0.000000  0.400000    0.00800000   5 t-inv F
 -0.200000  0.000000 -0.400000    0.00800000   5 t-inv F
  0.200000  0.200000 -0.200000    0.00800000   5 t-inv F
 -0.200000 -0.200000  0.200000    0.00800000   5 t-inv F
  0.400000  0.200000  0.400000    0.00800000   5 t-inv F
 -0.400000 -0.200000 -0.400000    0.00800000   5 t-inv F
  0.200000  0.400000  0.000000    0.00800000   5 t-inv F
 -0.200000 -0.400000  0.000000    0.00800000   5 t-inv F
  0.200000 -0.200000 -0.200000    0.00800000   5 t-inv F
 -0.200000  0.200000  0.200000    0.00800000   5 t-inv F
  0.400000  0.400000  0.200000    0.00800000   5 t-inv F
 -0.400000 -0.400000 -0.200000    0.00800000   5 t-inv F
  0.000000  0.200000  0.400000    0.00800000   5 t-inv F
  0.000000 -0.200000 -0.400000    0.00800000   5 t-inv F
 -0.200000  0.200000 -0.200000    0.00800000   5 t-inv F
  0.200000 -0.200000  0.200000    0.00800000   5 t-inv F
  0.200000  0.400000  0.400000    0.00800000   5 t-inv F
 -0.200000 -0.400000 -0.400000    0.00800000   5 t-inv F
  0.400000  0.000000  0.200000    0.00800000   5 t-inv F
 -0.400000  0.000000 -0.200000    0.00800000   5 t-inv F
  0.400000 -0.200000  0.000000    0.00800000   6 t-inv F
  0.000000 -0.400000  0.200000    0.00800000   6 t-inv F
  0.000000  0.400000 -0.200000    0.00800000   6 t-inv F
  0.200000  0.000000 -0.400000    0.00800000   6 t-inv F
 -0.200000  0.000000  0.400000    0.00800000   6 t-inv F
  0.200000  0.200000  0.600000    0.00800000   6 t-inv F
 -0.200000 -0.200000 -0.600000    0.00800000   6 t-inv F
 -0.400000 -0.600000 -0.400000    0.00800000   6 t-inv F
  0.400000  0.600000  0.400000    0.00800000   6 t-inv F
  0.200000 -0.400000  0.000000    0.00800000   6 t-inv F
 -0.200000  0.400000  0.000000    0.00800000   6 t-inv F
 -0.600000 -0.200000 -0.200000    0.00800000   6 t-inv F
  0.600000  0.200000  0.200000    0.00800000   6 t-inv F
 -0.400000 -0.400000 -0.600000    0.00800000   6 t-inv F
  0.400000  0.400000  0.600000    0.00800000   6 t-inv F
  0.000000  0.200000 -0.400000    0.00800000   6 t-inv F
  0.000000 -0.200000  0.400000    0.00800000   6 t-inv F
 -0.200000 -0.600000 -0.200000    0.00800000   6 t-inv F
  0.200000  0.600000  0.200000    0.00800000   6 t-inv F
 -0.600000 -0.400000 -0.400000    0.00800000   6 t-inv F
  0.600000  0.400000  0.400000    0.00800000   6 t-inv F
 -0.400000  0.000000  0.200000    0.00800000   6 t-inv F
  0.400000  0.000000 -0.200000    0.00800000   6 t-inv F
  0.200000 -0.200000  0.000000    0.00800000   7 t-inv F
  0.000000 -0.200000  0.200000    0.00800000   7 t-inv F
  0.000000  0.200000 -0.200000    0.00800000   7 t-inv F
  0.200000  0.000000 -0.200000    0.00800000   7 t-inv F
 -0.200000  0.000000  0.200000    0.00800000   7 t-inv F
  0.200000  0.200000  0.400000    0.00800000   7 t-inv F
 -0.200000 -0.200000 -0.400000    0.00800000   7 t-inv F
 -0.200000 -0.400000 -0.200000    0.00800000   7 t-inv F
  0.200000  0.400000  0.200000    0.00800000   7 t-inv F
 -0.400000 -0.200000 -0.200000    0.00800000   7 t-inv F
  0.400000  0.200000  0.200000    0.00800000   7 t-inv F
 -0.400000 -0.400000  0.000000    0.00800000   8 t-inv F
  0.000000  0.400000  0.400000    0.00800000   8 t-inv F
  0.000000 -0.400000 -0.400000    0.00800000   8 t-inv F
  0.400000  0.000000  0.400000    0.00800000   8 t-inv F
 -0.400000  0.000000 -0.400000    0.00800000   8 t-inv F
  0.400000 -0.400000  0.000000    0.00800000   9 t-inv F
  0.000000 -0.400000  0.400000    0.00800000   9 t-inv F
  0.000000  0.400000 -0.400000    0.00800000   9 t-inv F
  0.400000  0.000000 -0.400000    0.00800000   9 t-inv F
 -0.400000  0.000000  0.400000    0.00800000   9 t-inv F
  0.400000  0.400000  0.800000    0.00800000   9 t-inv F
 -0.400000 -0.400000 -0.800000    0.00800000   9 t-inv F
 -0.400000 -0.800000 -0.400000    0.00800000   9 t-inv F
  0.400000  0.800000  0.400000    0.00800000   9 t-inv F
 -0.800000 -0.400000 -0.400000    0.00800000   9 t-inv F
  0.800000  0.400000  0.400000    0.00800000   9 t-inv F
  0.400000 -0.400000 -0.200000    0.00800000  10 t-inv F
  0.200000 -0.400000  0.400000    0.00800000  10 t-inv F
 -0.200000  0.400000 -0.400000    0.00800000  10 t-inv F
  0.400000  0.200000 -0.400000    0.00800000  10 t-inv F
 -0.400000 -0.200000  0.400000    0.00800000  10 t-inv F
  0.400000  0.200000  0.800000    0.00800000  10 t-inv F
 -0.400000 -0.200000 -0.800000    0.00800000  10 t-inv F
 -0.400000 -0.800000 -0.600000    0.00800000  10 t-inv F
  0.400000  0.800000  0.600000    0.00800000  10 t-inv F
  0.200000  0.600000 -0.200000    0.00800000  10 t-inv F
 -0.200000 -0.600000  0.200000    0.00800000  10 t-inv F
  0.200000 -0.600000 -0.200000    0.00800000  10 t-inv F
 -0.200000  0.600000  0.200000    0.00800000  10 t-inv F
 -0.800000 -0.200000 -0.400000    0.00800000  10 t-inv F
  0.800000  0.200000  0.400000    0.00800000  10 t-inv F
 -0.600000 -0.400000 -0.800000    0.00800000  10 t-inv F
  0.600000  0.400000  0.800000    0.00800000  10 t-inv F
 -0.200000  0.200000  0.600000    0.00800000  10 t-inv F
  0.200000 -0.200000 -0.600000    0.00800000  10 t-inv F
 -0.400000 -0.800000 -0.200000    0.00800000  10 t-inv F
  0.400000  0.800000  0.200000    0.00800000  10 t-inv F
 -0.800000 -0.600000 -0.400000    0.00800000  10 t-inv F
  0.800000  0.600000  0.400000    0.00800000  10 t-inv F


--------------------------------------------------------------------------------------------------------




 Dimension of arrays:
   k-points           NKPTS =     10   k-points in BZ     NKDIM =     10   number of bands    NBANDS=    648
   number of dos      NEDOS =    301   number of ions     NIONS =     64
   non local maximal  LDIM  =      6   non local SUM 2l+1 LMDIM =     18
   total plane-waves  NPLWV = 343000
   max r-space proj   IRMAX =   4971   max aug-charges    IRDMAX=   8897
   dimension x,y,z NGX =    70 NGY =   70 NGZ =   70
   dimension x,y,z NGXF=   140 NGYF=  140 NGZF=  140
   support grid    NGXF=   140 NGYF=  140 NGZF=  140
   ions per type =              64
 NGX,Y,Z   is equivalent  to a cutoff of  10.86, 10.86, 10.86 a.u.
 NGXF,Y,Z  is equivalent  to a cutoff of  21.72, 21.72, 21.72 a.u.


 I would recommend the setting:
   dimension x,y,z NGX =    67 NGY =   67 NGZ =   67
 SYSTEM =  phonon of Zr bcc - omiga                
 POSCAR =  Supercell by Yi Wang                    

 Startparameter for this run:
   NWRITE =      0    write-flag & timer
   PREC   = a         normal or accurate (medium, high low for compatibility)
   ISTART =      0    job   : 0-new  1-cont  2-samecut
   ICHARG =      2    charge: 1-file 2-atom 10-const
   ISPIN  =      2    spin polarized calculation?
   LNONCOLLINEAR =      F non collinear calculations
   LSORBIT =      F    spin-orbit coupling
   INIWAV =      1    electr: 0-lowe 1-rand  2-diag
   LASPH  =      F    aspherical Exc in radial PAW
   METAGGA=      F    non-selfconsistent MetaGGA calc.

 Electronic Relaxation 1
   ENCUT  =  367.9 eV  27.04 Ry    5.20 a.u.  16.76 16.76 16.76*2*pi/ulx,y,z
   ENINI  =  367.9     initial cutoff
   ENAUG  =  703.4 eV  augmentation charge cutoff
   NELM   =     60;   NELMIN=  2; NELMDL=  0     # of ELM steps 
   EDIFF  = 0.1E-05   stopping-criterion for ELM
   LREAL  =      T    real-space projection
   NLSPLINE    = F    spline interpolate recip. space projectors
   LCOMPAT=      F    compatible to vasp.4.4
   GGA_COMPAT  = T    GGA compatible to vasp.4.4-vasp.4.6
   LMAXPAW     = -100 max onsite density
   LMAXMIX     =    2 max onsite mixed and CHGCAR
   VOSKOWN=      0    Vosko Wilk Nusair interpolation
   ROPT   =   -0.00025
 Ionic relaxation
   EDIFFG = 0.1E-04   stopping-criterion for IOM
   NSW    =    805    number of steps for IOM
   NBLOCK =      1;   KBLOCK =      1    inner block; outer block 
   IBRION =      6    ionic relax: 0-MD 1-quasi-New 2-CG
   NFREE  =      2    steps in history (QN), initial steepest desc. (CG)
   ISIF   =      2    stress and relaxation
   IWAVPR =     11    prediction:  0-non 1-charg 2-wave 3-comb
   ISYM   =      2    0-nonsym 1-usesym 2-fastsym
   LCORR  =      T    Harris-Foulkes like correction to forces

   POTIM  = 0.5000    time-step for ionic-motion
   TEIN   =    0.0    initial temperature
   TEBEG  =    0.0;   TEEND  =   0.0 temperature during run
   SMASS  =  -3.00    Nose mass-parameter (am)
   estimated Nose-frequenzy (Omega)   =  0.10E-29 period in steps =****** mass=  -0.263E-26a.u.
   SCALEE = 1.0000    scale energy and forces
   NPACO  =    256;   APACO  = 16.0  distance and # of slots for P.C.
   PSTRESS=    0.0 pullay stress

  Mass of Ions in am
   POMASS =  58.69
  Ionic Valenz
   ZVAL   =  16.00
  Atomic Wigner-Seitz radii
   RWIGS  =  -1.00
  virtual crystal weights 
   VCA    =   1.00
   NELECT =    1024.0000    total number of electrons
   NUPDOWN=      -1.0000    fix difference up-down

 DOS related values:
   EMIN   =  10.00;   EMAX   =-10.00  energy-range for DOS
   EFERMI =   0.00
   ISMEAR =     1;   SIGMA  =   0.20  broadening in eV -4-tet -1-fermi 0-gaus

 Electronic relaxation 2 (details)
   IALGO  =     38    algorithm
   LDIAG  =      T    sub-space diagonalisation (order eigenvalues)
   LSUBROT=      F    optimize rotation matrix (better conditioning)
   TURBO    =      0    0=normal 1=particle mesh
   IRESTART =      0    0=no restart 2=restart with 2 vectors
   NREBOOT  =      0    no. of reboots
   NMIN     =      0    reboot dimension
   EREF     =   0.00    reference energy to select bands
   IMIX   =      4    mixing-type and parameters
     AMIX     =   0.40;   BMIX     =  1.00
     AMIX_MAG =   1.60;   BMIX_MAG =  1.00
     AMIN     =   0.10
     WC   =   100.;   INIMIX=   1;  MIXPRE=   1;  MAXMIX= -45

 Intra band minimization:
   WEIMIN = 0.0010     energy-eigenvalue tresh-hold
   EBREAK =  0.39E-09  absolut break condition
   DEPER  =   0.30     relativ break condition  

   TIME   =   0.40     timestep for ELM

  volume/ion in A,a.u.               =      13.60        91.80
  Fermi-wavevector in a.u.,A,eV,Ry     =   1.728094  3.265623 40.631175  2.986307
  Thomas-Fermi vector in A             =   2.803093
 
 Write flags
   LWAVE  =      T    write WAVECAR
   LCHARG =      T    write CHGCAR
   LVTOT  =      F    write LOCPOT, total local potential
   LVHAR  =      F    write LOCPOT, Hartree potential only
   LELF   =      F    write electronic localiz. function (ELF)
   LORBIT =      0    0 simple, 1 ext, 2 COOP (PROOUT)


 Dipole corrections
   LMONO  =      F    monopole corrections only (constant potential shift)
   LDIPOL =      F    correct potential (dipole corrections)
   IDIPOL =      0    1-x, 2-y, 3-z, 4-all directions 
   EPSILON=  1.0000000 bulk dielectric constant

 Exchange correlation treatment:
   GGA     =    --    GGA type
   LEXCH   =     8    internal setting for exchange type
   VOSKOWN=      0    Vosko Wilk Nusair interpolation
   LHFCALC =     F    Hartree Fock is set to
   LHFONE  =     F    Hartree Fock one center treatment
   AEXX    =    0.0000 exact exchange contribution

 Linear response parameters
   LEPSILON=     F    determine dielectric tensor
   LRPA    =     F    only Hartree local field effects (RPA)
   LNABLA  =     F    use nabla operator in PAW spheres
   LVEL    =     F    velocity operator in full k-point grid
   LINTERFAST=   F  fast interpolation
   KINTER  =     0    interpolate to denser k-point grid
   CSHIFT  =0.1000    complex shift for real part using Kramers Kronig
   OMEGAMAX=  -1.0    maximum frequency
   DEG_THRESHOLD= 0.2000000E-02 threshold for treating states as degnerate
   RTIME   =    0.100 relaxation time in fs

 Orbital magnetization related:
   ORBITALMAG=     F  switch on orbital magnetization
   LCHIMAG   =     F  perturbation theory with respect to B field
   DQ        =  0.001000  dq finite difference perturbation B field



--------------------------------------------------------------------------------------------------------


 finite differences with symmetry
 charge density and potential will be updated during run
 spin polarized calculation
 Variant of blocked Davidson
 Davidson routine will perform the subspace rotation
 perform sub-space diagonalisation
    after iterative eigenvector-optimisation
 modified Broyden-mixing scheme, WC =      100.0
 initial mixing is a Kerker type mixing with AMIX =  0.4000 and BMIX =      1.0000
 Hartree-type preconditioning will be used
 using additional bands          136
 real space projection scheme for non local part
 use partial core corrections
 calculate Harris-corrections to forces 
   (improved forces if not selfconsistent)
 use gradient corrections 
 use of overlap-Matrix (Vanderbilt PP)
 Methfessel and Paxton  Order N= 1 SIGMA  =   0.20


--------------------------------------------------------------------------------------------------------


  energy-cutoff  :      367.94
  volume of cell :      870.61
      direct lattice vectors                 reciprocal lattice vectors
     0.000000000  7.578750000  7.578750000    -0.065973940  0.065973940  0.065973940
     7.578750000  0.000000000  7.578750000     0.065973940 -0.065973940  0.065973940
     7.578750000  7.578750000  0.000000000     0.065973940  0.065973940 -0.065973940

  length of vectors
    10.717971036 10.717971036 10.717971036     0.114270217  0.114270217  0.114270217


 
 k-points in units of 2pi/SCALE and weight: Zr 15x15x15                             
   0.00000000  0.00000000  0.00000000       0.008
  -0.01319479  0.01319479  0.01319479       0.064
  -0.02638958  0.02638958  0.02638958       0.064
   0.00000000  0.00000000  0.02638958       0.048
  -0.01319479  0.01319479  0.03958436       0.192
   0.03958436 -0.03958436 -0.01319479       0.192
   0.02638958 -0.02638958  0.00000000       0.096
   0.00000000  0.00000000  0.05277915       0.048
   0.05277915 -0.05277915  0.00000000       0.096
   0.06597394 -0.03958436 -0.01319479       0.192
 
 k-points in reciprocal lattice and weights: Zr 15x15x15                             
   0.00000000  0.00000000  0.00000000       0.008
   0.20000000  0.00000000  0.00000000       0.064
   0.40000000  0.00000000  0.00000000       0.064
   0.20000000  0.20000000  0.00000000       0.048
   0.40000000  0.20000000  0.00000000       0.192
  -0.40000000  0.20000000  0.00000000       0.192
  -0.20000000  0.20000000  0.00000000       0.096
   0.40000000  0.40000000  0.00000000       0.048
  -0.40000000  0.40000000  0.00000000       0.096
  -0.40000000  0.40000000  0.20000000       0.192
 
 position of ions in fractional coordinates (direct lattice) 
   0.00000000  0.00000000  0.00000000
   0.00000000  0.00000000  0.25000000
   0.00000000  0.00000000  0.50000000
   0.00000000  0.00000000  0.75000000
   0.00000000  0.25000000  0.00000000
   0.00000000  0.25000000  0.25000000
   0.00000000  0.25000000  0.50000000
   0.00000000  0.25000000  0.75000000
   0.00000000  0.50000000  0.00000000
   0.00000000  0.50000000  0.25000000
   0.00000000  0.50000000  0.50000000
   0.00000000  0.50000000  0.75000000
   0.00000000  0.75000000  0.00000000
   0.00000000  0.75000000  0.25000000
   0.00000000  0.75000000  0.50000000
   0.00000000  0.75000000  0.75000000
   0.25000000  0.00000000  0.00000000
   0.25000000  0.00000000  0.25000000
   0.25000000  0.00000000  0.50000000
   0.25000000  0.00000000  0.75000000
   0.25000000  0.25000000  0.00000000
   0.25000000  0.25000000  0.25000000
   0.25000000  0.25000000  0.50000000
   0.25000000  0.25000000  0.75000000
   0.25000000  0.50000000  0.00000000
   0.25000000  0.50000000  0.25000000
   0.25000000  0.50000000  0.50000000
   0.25000000  0.50000000  0.75000000
   0.25000000  0.75000000  0.00000000
   0.25000000  0.75000000  0.25000000
   0.25000000  0.75000000  0.50000000
   0.25000000  0.75000000  0.75000000
   0.50000000  0.00000000  0.00000000
   0.50000000  0.00000000  0.25000000
   0.50000000  0.00000000  0.50000000
   0.50000000  0.00000000  0.75000000
   0.50000000  0.25000000  0.00000000
   0.50000000  0.25000000  0.25000000
   0.50000000  0.25000000  0.50000000
   0.50000000  0.25000000  0.75000000
   0.50000000  0.50000000  0.00000000
   0.50000000  0.50000000  0.25000000
   0.50000000  0.50000000  0.50000000
   0.50000000  0.50000000  0.75000000
   0.50000000  0.75000000  0.00000000
   0.50000000  0.75000000  0.25000000
   0.50000000  0.75000000  0.50000000
   0.50000000  0.75000000  0.75000000
   0.75000000  0.00000000  0.00000000
   0.75000000  0.00000000  0.25000000
   0.75000000  0.00000000  0.50000000
   0.75000000  0.00000000  0.75000000
   0.75000000  0.25000000  0.00000000
   0.75000000  0.25000000  0.25000000
   0.75000000  0.25000000  0.50000000
   0.75000000  0.25000000  0.75000000
   0.75000000  0.50000000  0.00000000
   0.75000000  0.50000000  0.25000000
   0.75000000  0.50000000  0.50000000
   0.75000000  0.50000000  0.75000000
   0.75000000  0.75000000  0.00000000
   0.75000000  0.75000000  0.25000000
   0.75000000  0.75000000  0.50000000
   0.75000000  0.75000000  0.75000000
 
 position of ions in cartesian coordinates  (Angst):
   0.00000000  0.00000000  0.00000000
   1.89468750  1.89468750  0.00000000
   3.78937500  3.78937500  0.00000000
   5.68406250  5.68406250  0.00000000
   1.89468750  0.00000000  1.89468750
   3.78937500  1.89468750  1.89468750
   5.68406250  3.78937500  1.89468750
   7.57875000  5.68406250  1.89468750
   3.78937500  0.00000000  3.78937500
   5.68406250  1.89468750  3.78937500
   7.57875000  3.78937500  3.78937500
   9.47343750  5.68406250  3.78937500
   5.68406250  0.00000000  5.68406250
   7.57875000  1.89468750  5.68406250
   9.47343750  3.78937500  5.68406250
  11.36812500  5.68406250  5.68406250
   0.00000000  1.89468750  1.89468750
   1.89468750  3.78937500  1.89468750
   3.78937500  5.68406250  1.89468750
   5.68406250  7.57875000  1.89468750
   1.89468750  1.89468750  3.78937500
   3.78937500  3.78937500  3.78937500
   5.68406250  5.68406250  3.78937500
   7.57875000  7.57875000  3.78937500
   3.78937500  1.89468750  5.68406250
   5.68406250  3.78937500  5.68406250
   7.57875000  5.68406250  5.68406250
   9.47343750  7.57875000  5.68406250
   5.68406250  1.89468750  7.57875000
   7.57875000  3.78937500  7.57875000
   9.47343750  5.68406250  7.57875000
  11.36812500  7.57875000  7.57875000
   0.00000000  3.78937500  3.78937500
   1.89468750  5.68406250  3.78937500
   3.78937500  7.57875000  3.78937500
   5.68406250  9.47343750  3.78937500
   1.89468750  3.78937500  5.68406250
   3.78937500  5.68406250  5.68406250
   5.68406250  7.57875000  5.68406250
   7.57875000  9.47343750  5.68406250
   3.78937500  3.78937500  7.57875000
   5.68406250  5.68406250  7.57875000
   7.57875000  7.57875000  7.57875000
   9.47343750  9.47343750  7.57875000
   5.68406250  3.78937500  9.47343750
   7.57875000  5.68406250  9.47343750
   9.47343750  7.57875000  9.47343750
  11.36812500  9.47343750  9.47343750
   0.00000000  5.68406250  5.68406250
   1.89468750  7.57875000  5.68406250
   3.78937500  9.47343750  5.68406250
   5.68406250 11.36812500  5.68406250
   1.89468750  5.68406250  7.57875000
   3.78937500  7.57875000  7.57875000
   5.68406250  9.47343750  7.57875000
   7.57875000 11.36812500  7.57875000
   3.78937500  5.68406250  9.47343750
   5.68406250  7.57875000  9.47343750
   7.57875000  9.47343750  9.47343750
   9.47343750 11.36812500  9.47343750
   5.68406250  5.68406250 11.36812500
   7.57875000  7.57875000 11.36812500
   9.47343750  9.47343750 11.36812500
  11.36812500 11.36812500 11.36812500
 


--------------------------------------------------------------------------------------------------------


 k-point  1 :   0.0000 0.0000 0.0000  plane waves:   13851
 k-point  2 :   0.2000 0.0000 0.0000  plane waves:   13953
 k-point  3 :   0.4000 0.0000 0.0000  plane waves:   13945
 k-point  4 :   0.2000 0.2000 0.0000  plane waves:   13948
 k-point  5 :   0.4000 0.2000 0.0000  plane waves:   13937
 k-point  6 :  -0.4000 0.2000 0.0000  plane waves:   13958
 k-point  7 :  -0.2000 0.2000 0.0000  plane waves:   13975
 k-point  8 :   0.4000 0.4000 0.0000  plane waves:   13952
 k-point  9 :  -0.4000 0.4000 0.0000  plane waves:   13940
 k-point 10 :  -0.4000 0.4000 0.2000  plane waves:   13947

 maximum and minimum number of plane-waves per node :     13975    13851

 maximum number of plane-waves:     13975
 maximum index in each direction: 
   IXMAX=   17   IYMAX=   16   IZMAX=   16
   IXMIN=  -17   IYMIN=  -17   IZMIN=  -16

 NGX is ok and might be reduce to  70
 NGY is ok and might be reduce to  68
 NGZ is ok and might be reduce to  66

 serial   3D FFT for wavefunctions
 parallel 3D FFT for charge:
    minimum data exchange during FFTs selected (reduces bandwidth)


 total amount of memory used by VASP on root node   972460. kBytes
========================================================================

   base      :      30000. kBytes
   nonlr-proj:      53955. kBytes
   fftplans  :      24743. kBytes
   grid      :      77537. kBytes
   one-center:       1990. kBytes
   wavefun   :     784235. kBytes
 
     INWAV:  cpu time    0.0000: real time    0.0000
 Broyden mixing: mesh for mixing (old mesh)
   NGX = 33   NGY = 33   NGZ = 33
  (NGX  =140   NGY  =140   NGZ  =140)
  gives a total of  35937 points

 initial charge density was supplied:
 charge density of overlapping atoms calculated
 number of electron    1024.0000000 magnetization      64.0000000
 keeping initial charge density in first step


--------------------------------------------------------------------------------------------------------


 Maximum index for non-local projection operator         4874
 Maximum index for augmentation-charges         2121 (set IRDMAX)


--------------------------------------------------------------------------------------------------------


 First call to EWALD:  gamma=   0.186
 Maximum number of real-space cells 3x 3x 3
 Maximum number of reciprocal cells 3x 3x 3

 FEWALD executed in parallel
    FEWALD:  cpu time    0.0070: real time    0.0068


----------------------------------------- Iteration    1(   1)  ---------------------------------------


    POTLOK:  cpu time    0.8159: real time    1.6142
    SETDIJ:  cpu time    0.1010: real time    0.2210
     EDDAV:  cpu time  400.1702: real time  799.3873
       DOS:  cpu time    0.0090: real time    0.0294
    --------------------------------------------
      LOOP:  cpu time  401.0970: real time  801.3038

 eigenvalue-minimisations  : 30680
 total energy-change (2. order) : 0.1315767E+05  (-0.5660461E+05)
 number of electron    1024.0000000 magnetization      64.0000000
 augmentation part     1024.0000000 magnetization      64.0000000

 Free energy of the ion-electron system (eV)
  ---------------------------------------------------
  alpha Z        PSCENC =      7925.72117195
  Ewald energy   TEWEN  =   -142726.55438451
  -Hartree energ DENC   =    -68446.41765041
  -exchange      EXHF   =         0.00000000
  -V(xc)+E(xc)   XCENC  =      5673.78680675
  PAW double counting   =    172361.15642774  -181272.45834873
  entropy T*S    EENTRO =        -0.00607096
  eigenvalues    EBANDS =     -4370.84685061
  atomic energy  EATOM  =    224013.29143063
  Solvation  Ediel_sol  =         0.00000000
  ---------------------------------------------------
  free energy    TOTEN  =     13157.67253185 eV

  energy without entropy =    13157.67860282  energy(sigma->0) =    13157.67455551


--------------------------------------------------------------------------------------------------------




----------------------------------------- Iteration    1(   2)  ---------------------------------------


     EDDAV:  cpu time  349.0229: real time  697.2204
       DOS:  cpu time    0.0100: real time    0.0401
    --------------------------------------------
      LOOP:  cpu time  349.0329: real time  697.2612

 eigenvalue-minimisations  : 25920
 total energy-change (2. order) :-0.1250913E+05  (-0.1214146E+05)
 number of electron    1024.0000000 magnetization      64.0000000
 augmentation part     1024.0000000 magnetization      64.0000000

 Free energy of the ion-electron system (eV)
  ---------------------------------------------------
  alpha Z        PSCENC =      7925.72117195
  Ewald energy   TEWEN  =   -142726.55438451
  -Hartree energ DENC   =    -68446.41765041
  -exchange      EXHF   =         0.00000000
  -V(xc)+E(xc)   XCENC  =      5673.78680675
  PAW double counting   =    172361.15642774  -181272.45834873
  entropy T*S    EENTRO =         0.00354146
  eigenvalues    EBANDS =    -16879.98985794
  atomic energy  EATOM  =    224013.29143063
  Solvation  Ediel_sol  =         0.00000000
  ---------------------------------------------------
  free energy    TOTEN  =       648.53913693 eV

  energy without entropy =      648.53559548  energy(sigma->0) =      648.53795645


--------------------------------------------------------------------------------------------------------




----------------------------------------- Iteration    1(   3)  ---------------------------------------


     EDDAV:  cpu time  360.8561: real time  720.8551
       DOS:  cpu time    0.0110: real time    0.0314
    --------------------------------------------
      LOOP:  cpu time  360.8671: real time  720.8871

 eigenvalue-minimisations  : 26952
 total energy-change (2. order) :-0.1006395E+04  (-0.8272861E+03)
 number of electron    1024.0000000 magnetization      64.0000000
 augmentation part     1024.0000000 magnetization      64.0000000

 Free energy of the ion-electron system (eV)
  ---------------------------------------------------
  alpha Z        PSCENC =      7925.72117195
  Ewald energy   TEWEN  =   -142726.55438451
  -Hartree energ DENC   =    -68446.41765041
  -exchange      EXHF   =         0.00000000
  -V(xc)+E(xc)   XCENC  =      5673.78680675
  PAW double counting   =    172361.15642774  -181272.45834873
  entropy T*S    EENTRO =         0.06276611
  eigenvalues    EBANDS =    -17886.44372536
  atomic energy  EATOM  =    224013.29143063
  Solvation  Ediel_sol  =         0.00000000
  ---------------------------------------------------
  free energy    TOTEN  =      -357.85550583 eV

  energy without entropy =     -357.91827194  energy(sigma->0) =     -357.87642787


--------------------------------------------------------------------------------------------------------




----------------------------------------- Iteration    1(   4)  ---------------------------------------


     EDDAV:  cpu time  369.0209: real time  737.1921
       DOS:  cpu time    0.0100: real time    0.0205
    --------------------------------------------
      LOOP:  cpu time  369.0319: real time  737.2132

 eigenvalue-minimisations  : 27848
 total energy-change (2. order) :-0.5298725E+02  (-0.5159310E+02)
 number of electron    1024.0000000 magnetization      64.0000000
 augmentation part     1024.0000000 magnetization      64.0000000

 Free energy of the ion-electron system (eV)
  ---------------------------------------------------
  alpha Z        PSCENC =      7925.72117195
  Ewald energy   TEWEN  =   -142726.55438451
  -Hartree energ DENC   =    -68446.41765041
  -exchange      EXHF   =         0.00000000
  -V(xc)+E(xc)   XCENC  =      5673.78680675
  PAW double counting   =    172361.15642774  -181272.45834873
  entropy T*S    EENTRO =         0.10614048
  eigenvalues    EBANDS =    -17939.47435285
  atomic energy  EATOM  =    224013.29143063
  Solvation  Ediel_sol  =         0.00000000
  ---------------------------------------------------
  free energy    TOTEN  =      -410.84275894 eV

  energy without entropy =     -410.94889942  energy(sigma->0) =     -410.87813910


--------------------------------------------------------------------------------------------------------




----------------------------------------- Iteration    1(   5)  ---------------------------------------


     EDDAV:  cpu time  364.7845: real time  728.7033
       DOS:  cpu time    0.0110: real time    0.0207
    CHARGE:  cpu time   18.5822: real time   37.1064
    MIXING:  cpu time    0.0180: real time    0.0577
    --------------------------------------------
      LOOP:  cpu time  383.3967: real time  765.8888

 eigenvalue-minimisations  : 27376
 total energy-change (2. order) :-0.8151831E+00  (-0.8144847E+00)
 number of electron    1023.9995925 magnetization      61.3666297
 augmentation part      572.5284708 magnetization      47.8786558

 Broyden mixing:
  rms(total) = 0.67986E+01    rms(broyden)= 0.67954E+01
  rms(prec ) = 0.90932E+01
  weight for this iteration     100.00

 Free energy of the ion-electron system (eV)
  ---------------------------------------------------
  alpha Z        PSCENC =      7925.72117195
  Ewald energy   TEWEN  =   -142726.55438451
  -Hartree energ DENC   =    -68446.41765041
  -exchange      EXHF   =         0.00000000
  -V(xc)+E(xc)   XCENC  =      5673.78680675
  PAW double counting   =    172361.15642774  -181272.45834873
  entropy T*S    EENTRO =         0.10639332
  eigenvalues    EBANDS =    -17940.28978882
  atomic energy  EATOM  =    224013.29143063
  Solvation  Ediel_sol  =         0.00000000
  ---------------------------------------------------
  free energy    TOTEN  =      -411.65794208 eV

  energy without entropy =     -411.76433540  energy(sigma->0) =     -411.69340652


--------------------------------------------------------------------------------------------------------




----------------------------------------- Iteration    1(   6)  ---------------------------------------


    POTLOK:  cpu time    0.8069: real time    1.5976
    SETDIJ:  cpu time    0.1020: real time    0.2217
     EDDAV:  cpu time  365.6284: real time  730.4377
       DOS:  cpu time    0.0100: real time    0.0314
    CHARGE:  cpu time   17.6433: real time   35.2108
    MIXING:  cpu time    0.0160: real time    0.0567
    --------------------------------------------
      LOOP:  cpu time  384.2076: real time  767.5567

 eigenvalue-minimisations  : 27200
 total energy-change (2. order) : 0.1352738E+02  (-0.7142942E+02)
 number of electron    1023.9995399 magnetization      54.3270074
 augmentation part      638.7945981 magnetization      50.4232664

 Broyden mixing:
  rms(total) = 0.66186E+01    rms(broyden)= 0.66180E+01
  rms(prec ) = 0.82004E+01
  weight for this iteration     100.00

 eigenvalues of (default mixing * dielectric matrix)
  average eigenvalue GAMMA=   0.4708
  0.4708

 Free energy of the ion-electron system (eV)
  ---------------------------------------------------
  alpha Z        PSCENC =      7925.72117195
  Ewald energy   TEWEN  =   -142726.55438451
  -Hartree energ DENC   =    -64998.47148078
  -exchange      EXHF   =         0.00000000
  -V(xc)+E(xc)   XCENC  =      5546.40183251
  PAW double counting   =    166650.08127674  -175222.93687792
  entropy T*S    EENTRO =        -0.48023561
  eigenvalues    EBANDS =    -21585.18329149
  atomic energy  EATOM  =    224013.29143063
  Solvation  Ediel_sol  =         0.00000000
  ---------------------------------------------------
  free energy    TOTEN  =      -398.13055849 eV

  energy without entropy =     -397.65032287  energy(sigma->0) =     -397.97047995


--------------------------------------------------------------------------------------------------------




----------------------------------------- Iteration    1(   7)  ---------------------------------------


    POTLOK:  cpu time    0.8019: real time    1.5877
    SETDIJ:  cpu time    0.1000: real time    0.2015
     EDDAV:  cpu time  364.3046: real time  727.7789
       DOS:  cpu time    0.0120: real time    0.0316
    CHARGE:  cpu time   17.8723: real time   35.6819
    MIXING:  cpu time    0.0160: real time    0.0368
    --------------------------------------------
      LOOP:  cpu time  383.1068: real time  765.3191

 eigenvalue-minimisations  : 27088
 total energy-change (2. order) : 0.4655150E+02  (-0.1657306E+02)
 number of electron    1023.9995650 magnetization      48.9675962
 augmentation part      607.7028007 magnetization      40.0711176

 Broyden mixing:
  rms(total) = 0.58185E+00    rms(broyden)= 0.58068E+00
  rms(prec ) = 0.65557E+00
  weight for this iteration     100.00

 eigenvalues of (default mixing * dielectric matrix)
  average eigenvalue GAMMA=   0.7282
  0.9238  0.5326

 Free energy of the ion-electron system (eV)
  ---------------------------------------------------
  alpha Z        PSCENC =      7925.72117195
  Ewald energy   TEWEN  =   -142726.55438451
  -Hartree energ DENC   =    -66439.50290937
  -exchange      EXHF   =         0.00000000
  -V(xc)+E(xc)   XCENC  =      5598.72155738
  PAW double counting   =    169471.98060899  -178331.17210211
  entropy T*S    EENTRO =        -0.30522229
  eigenvalues    EBANDS =    -19863.75920528
  atomic energy  EATOM  =    224013.29143063
  Solvation  Ediel_sol  =         0.00000000
  ---------------------------------------------------
  free energy    TOTEN  =      -351.57905462 eV

  energy without entropy =     -351.27383233  energy(sigma->0) =     -351.47731385


--------------------------------------------------------------------------------------------------------




----------------------------------------- Iteration    1(   8)  ---------------------------------------


    POTLOK:  cpu time    0.8029: real time    1.6065
    SETDIJ:  cpu time    0.1010: real time    0.2120
     EDDAV:  cpu time  363.4927: real time  726.1587
       DOS:  cpu time    0.0100: real time    0.0104
    CHARGE:  cpu time   17.9733: real time   35.9096
    MIXING:  cpu time    0.0170: real time    0.0569
    --------------------------------------------
      LOOP:  cpu time  382.3979: real time  763.9549

 eigenvalue-minimisations  : 27000
 total energy-change (2. order) :-0.2440423E+00  (-0.1806917E+00)
 number of electron    1023.9995658 magnetization      44.5276900
 augmentation part      606.5741056 magnetization      36.8746296

 Broyden mixing:
  rms(total) = 0.31306E+00    rms(broyden)= 0.31293E+00
  rms(prec ) = 0.40144E+00
  weight for this iteration     100.00

 eigenvalues of (default mixing * dielectric matrix)
  average eigenvalue GAMMA=   1.0681
  0.5376  0.8607  1.8060

 Free energy of the ion-electron system (eV)
  ---------------------------------------------------
  alpha Z        PSCENC =      7925.72117195
  Ewald energy   TEWEN  =   -142726.55438451
  -Hartree energ DENC   =    -66371.22585625
  -exchange      EXHF   =         0.00000000
  -V(xc)+E(xc)   XCENC  =      5597.21229478
  PAW double counting   =    169784.94642714  -178726.67390635
  entropy T*S    EENTRO =        -0.30020396
  eigenvalues    EBANDS =    -19848.24007039
  atomic energy  EATOM  =    224013.29143063
  Solvation  Ediel_sol  =         0.00000000
  ---------------------------------------------------
  free energy    TOTEN  =      -351.82309697 eV

  energy without entropy =     -351.52289300  energy(sigma->0) =     -351.72302898


--------------------------------------------------------------------------------------------------------




----------------------------------------- Iteration    1(   9)  ---------------------------------------


    POTLOK:  cpu time    0.8029: real time    1.5730
    SETDIJ:  cpu time    0.1020: real time    0.2216
     EDDAV:  cpu time  369.8368: real time  738.8048
       DOS:  cpu time    0.0090: real time    0.0307
    CHARGE:  cpu time   17.8933: real time   35.7103
    MIXING:  cpu time    0.0180: real time    0.0381
    --------------------------------------------
      LOOP:  cpu time  388.6619: real time  776.3794

 eigenvalue-minimisations  : 27656
 total energy-change (2. order) : 0.1553890E-01  (-0.2779924E-01)
 number of electron    1023.9995651 magnetization      44.2814605
 augmentation part      607.4156053 magnetization      37.8904810

 Broyden mixing:
  rms(total) = 0.95387E-01    rms(broyden)= 0.95371E-01
  rms(prec ) = 0.97556E-01
  weight for this iteration     100.00

 eigenvalues of (default mixing * dielectric matrix)
  average eigenvalue GAMMA=   1.1160
  2.3271  0.9749  0.5423  0.6194

 Free energy of the ion-electron system (eV)
  ---------------------------------------------------
  alpha Z        PSCENC =      7925.72117195
  Ewald energy   TEWEN  =   -142726.55438451
  -Hartree energ DENC   =    -66227.84927763
  -exchange      EXHF   =         0.00000000
  -V(xc)+E(xc)   XCENC  =      5592.94355203
  PAW double counting   =    169994.36750024  -179000.28841456
  entropy T*S    EENTRO =        -0.31371384
  eigenvalues    EBANDS =    -19923.12542237
  atomic energy  EATOM  =    224013.29143063
  Solvation  Ediel_sol  =         0.00000000
  ---------------------------------------------------
  free energy    TOTEN  =      -351.80755806 eV

  energy without entropy =     -351.49384422  energy(sigma->0) =     -351.70298678


--------------------------------------------------------------------------------------------------------




----------------------------------------- Iteration    1(  10)  ---------------------------------------


    POTLOK:  cpu time    0.7989: real time    1.6083
    SETDIJ:  cpu time    0.1010: real time    0.2019
     EDDAV:  cpu time  385.7304: real time  770.4940
       DOS:  cpu time    0.0110: real time    0.0348
    CHARGE:  cpu time   17.9223: real time   35.7821
    MIXING:  cpu time    0.0180: real time    0.0389
    --------------------------------------------
      LOOP:  cpu time  404.5815: real time  808.1609

 eigenvalue-minimisations  : 29184
 total energy-change (2. order) :-0.5027192E-02  (-0.1300254E-02)
 number of electron    1023.9995651 magnetization      44.5529818
 augmentation part      607.4365900 magnetization      38.2313025

 Broyden mixing:
  rms(total) = 0.26265E-01    rms(broyden)= 0.26246E-01
  rms(prec ) = 0.30895E-01
  weight for this iteration     100.00

 eigenvalues of (default mixing * dielectric matrix)
  average eigenvalue GAMMA=   1.0916
  2.3385  1.0612  0.8881  0.5376  0.6327

 Free energy of the ion-electron system (eV)
  ---------------------------------------------------
  alpha Z        PSCENC =      7925.72117195
  Ewald energy   TEWEN  =   -142726.55438451
  -Hartree energ DENC   =    -66216.75180541
  -exchange      EXHF   =         0.00000000
  -V(xc)+E(xc)   XCENC  =      5592.72026274
  PAW double counting   =    170062.61787270  -179075.09566510
  entropy T*S    EENTRO =        -0.31269789
  eigenvalues    EBANDS =    -19927.44877037
  atomic energy  EATOM  =    224013.29143063
  Solvation  Ediel_sol  =         0.00000000
  ---------------------------------------------------
  free energy    TOTEN  =      -351.81258525 eV

  energy without entropy =     -351.49988737  energy(sigma->0) =     -351.70835262


--------------------------------------------------------------------------------------------------------




----------------------------------------- Iteration    1(  11)  ---------------------------------------


    POTLOK:  cpu time    0.8019: real time    1.6024
    SETDIJ:  cpu time    0.1010: real time    0.2220
     EDDAV:  cpu time  363.6477: real time  726.4217
       DOS:  cpu time    0.0110: real time    0.0311
    CHARGE:  cpu time   17.2844: real time   34.5091
    MIXING:  cpu time    0.0190: real time    0.0606
    --------------------------------------------
      LOOP:  cpu time  381.8649: real time  762.8477

 eigenvalue-minimisations  : 27144
 total energy-change (2. order) :-0.1090120E-02  (-0.3494210E-03)
 number of electron    1023.9995652 magnetization      44.7359373
 augmentation part      607.3193905 magnetization      38.3418904

 Broyden mixing:
  rms(total) = 0.96501E-02    rms(broyden)= 0.96082E-02
  rms(prec ) = 0.10687E-01
  weight for this iteration     100.00

 eigenvalues of (default mixing * dielectric matrix)
  average eigenvalue GAMMA=   1.2195
  2.3844  2.0320  0.9980  0.5372  0.7302  0.6351

 Free energy of the ion-electron system (eV)
  ---------------------------------------------------
  alpha Z        PSCENC =      7925.72117195
  Ewald energy   TEWEN  =   -142726.55438451
  -Hartree energ DENC   =    -66222.95721832
  -exchange      EXHF   =         0.00000000
  -V(xc)+E(xc)   XCENC  =      5592.97271515
  PAW double counting   =    170125.03120324  -179137.21091434
  entropy T*S    EENTRO =        -0.31032989
  eigenvalues    EBANDS =    -19921.79734928
  atomic energy  EATOM  =    224013.29143063
  Solvation  Ediel_sol  =         0.00000000
  ---------------------------------------------------
  free energy    TOTEN  =      -351.81367537 eV

  energy without entropy =     -351.50334548  energy(sigma->0) =     -351.71023208


--------------------------------------------------------------------------------------------------------




----------------------------------------- Iteration    1(  12)  ---------------------------------------


    POTLOK:  cpu time    0.8019: real time    1.5938
    SETDIJ:  cpu time    0.1010: real time    0.2120
     EDDAV:  cpu time  382.0739: real time  763.2149
       DOS:  cpu time    0.0110: real time    0.0308
    CHARGE:  cpu time   17.4294: real time   34.8085
    MIXING:  cpu time    0.0200: real time    0.0401
    --------------------------------------------
      LOOP:  cpu time  400.4381: real time  799.9117

 eigenvalue-minimisations  : 28960
 total energy-change (2. order) :-0.3071652E-03  (-0.3391292E-04)
 number of electron    1023.9995652 magnetization      44.7274690
 augmentation part      607.3274681 magnetization      38.2895297

 Broyden mixing:
  rms(total) = 0.40853E-02    rms(broyden)= 0.40847E-02
  rms(prec ) = 0.48858E-02
  weight for this iteration     100.00

 eigenvalues of (default mixing * dielectric matrix)
  average eigenvalue GAMMA=   1.2217
  2.4829  2.1508  1.1043  0.5379  0.6247  0.8258  0.8258

 Free energy of the ion-electron system (eV)
  ---------------------------------------------------
  alpha Z        PSCENC =      7925.72117195
  Ewald energy   TEWEN  =   -142726.55438451
  -Hartree energ DENC   =    -66222.92957486
  -exchange      EXHF   =         0.00000000
  -V(xc)+E(xc)   XCENC  =      5592.97853803
  PAW double counting   =    170164.92415784  -179176.38177152
  entropy T*S    EENTRO =        -0.31064793
  eigenvalues    EBANDS =    -19922.55290218
  atomic energy  EATOM  =    224013.29143063
  Solvation  Ediel_sol  =         0.00000000
  ---------------------------------------------------
  free energy    TOTEN  =      -351.81398254 eV

  energy without entropy =     -351.50333461  energy(sigma->0) =     -351.71043323


--------------------------------------------------------------------------------------------------------




----------------------------------------- Iteration    1(  13)  ---------------------------------------


    POTLOK:  cpu time    0.8029: real time    1.6127
    SETDIJ:  cpu time    0.1010: real time    0.2112
     EDDAV:  cpu time  369.9108: real time  738.9032
       DOS:  cpu time    0.0110: real time    0.0206
    CHARGE:  cpu time   17.2764: real time   34.4972
    MIXING:  cpu time    0.0210: real time    0.0411
    --------------------------------------------
      LOOP:  cpu time  388.1240: real time  775.2869

 eigenvalue-minimisations  : 27776
 total energy-change (2. order) : 0.1211863E-04  (-0.8733344E-05)
 number of electron    1023.9995652 magnetization      44.7147750
 augmentation part      607.3489142 magnetization      38.2747516

 Broyden mixing:
  rms(total) = 0.12825E-02    rms(broyden)= 0.12817E-02
  rms(prec ) = 0.14909E-02
  weight for this iteration     100.00

 eigenvalues of (default mixing * dielectric matrix)
  average eigenvalue GAMMA=   1.2049
  2.4847  2.0045  1.5103  0.9594  0.5380  0.6237  0.7594  0.7594

 Free energy of the ion-electron system (eV)
  ---------------------------------------------------
  alpha Z        PSCENC =      7925.72117195
  Ewald energy   TEWEN  =   -142726.55438451
  -Hartree energ DENC   =    -66222.09813808
  -exchange      EXHF   =         0.00000000
  -V(xc)+E(xc)   XCENC  =      5592.94247720
  PAW double counting   =    170166.57083489  -179177.74470544
  entropy T*S    EENTRO =        -0.31102243
  eigenvalues    EBANDS =    -19923.63163463
  atomic energy  EATOM  =    224013.29143063
  Solvation  Ediel_sol  =         0.00000000
  ---------------------------------------------------
  free energy    TOTEN  =      -351.81397042 eV

  energy without entropy =     -351.50294799  energy(sigma->0) =     -351.71029628


--------------------------------------------------------------------------------------------------------




----------------------------------------- Iteration    1(  14)  ---------------------------------------


    POTLOK:  cpu time    0.8039: real time    1.6139
    SETDIJ:  cpu time    0.1010: real time    0.2211
     EDDAV:  cpu time  274.3563: real time  548.0023
       DOS:  cpu time    0.0110: real time    0.0314
    CHARGE:  cpu time   17.2884: real time   34.5149
    MIXING:  cpu time    0.0210: real time    0.0518
    --------------------------------------------
      LOOP:  cpu time  292.5835: real time  584.4362

 eigenvalue-minimisations  : 18584
 total energy-change (2. order) : 0.3888563E-05  (-0.3159606E-06)
 number of electron    1023.9995652 magnetization      44.7068147
 augmentation part      607.3498382 magnetization      38.2676294

 Broyden mixing:
  rms(total) = 0.10356E-02    rms(broyden)= 0.10352E-02
  rms(prec ) = 0.13094E-02
  weight for this iteration     100.00

 eigenvalues of (default mixing * dielectric matrix)
  average eigenvalue GAMMA=   1.2825
  2.4917  2.2303  2.2303  1.0967  0.8445  0.8445  0.5378  0.6289  0.6378

 Free energy of the ion-electron system (eV)
  ---------------------------------------------------
  alpha Z        PSCENC =      7925.72117195
  Ewald energy   TEWEN  =   -142726.55438451
  -Hartree energ DENC   =    -66222.19149754
  -exchange      EXHF   =         0.00000000
  -V(xc)+E(xc)   XCENC  =      5592.94389854
  PAW double counting   =    170168.03736836  -179179.10997087
  entropy T*S    EENTRO =        -0.31111650
  eigenvalues    EBANDS =    -19923.64086659
  atomic energy  EATOM  =    224013.29143063
  Solvation  Ediel_sol  =         0.00000000
  ---------------------------------------------------
  free energy    TOTEN  =      -351.81396653 eV

  energy without entropy =     -351.50285003  energy(sigma->0) =     -351.71026103


--------------------------------------------------------------------------------------------------------




----------------------------------------- Iteration    1(  15)  ---------------------------------------


    POTLOK:  cpu time    0.8069: real time    1.6169
    SETDIJ:  cpu time    0.1000: real time    0.2109
     EDDAV:  cpu time  270.5889: real time  540.4748
       DOS:  cpu time    0.0100: real time    0.0207
    CHARGE:  cpu time   17.2784: real time   34.5106
    MIXING:  cpu time    0.0230: real time    0.0431
    --------------------------------------------
      LOOP:  cpu time  288.8081: real time  576.8779

 eigenvalue-minimisations  : 18208
 total energy-change (2. order) : 0.9646057E-05  (-0.2904297E-06)
 number of electron    1023.9995652 magnetization      44.7088778
 augmentation part      607.3457295 magnetization      38.2697482

 Broyden mixing:
  rms(total) = 0.38873E-03    rms(broyden)= 0.38866E-03
  rms(prec ) = 0.39008E-03
  weight for this iteration     100.00

 eigenvalues of (default mixing * dielectric matrix)
  average eigenvalue GAMMA=   1.2785
  2.6190  2.2811  2.2811  1.2521  0.9081  0.9081  0.5378  0.7421  0.6215  0.6339

 Free energy of the ion-electron system (eV)
  ---------------------------------------------------
  alpha Z        PSCENC =      7925.72117195
  Ewald energy   TEWEN  =   -142726.55438451
  -Hartree energ DENC   =    -66222.56833531
  -exchange      EXHF   =         0.00000000
  -V(xc)+E(xc)   XCENC  =      5592.95685922
  PAW double counting   =    170170.61861410  -179181.57300199
  entropy T*S    EENTRO =        -0.31109548
  eigenvalues    EBANDS =    -19923.39521549
  atomic energy  EATOM  =    224013.29143063
  Solvation  Ediel_sol  =         0.00000000
  ---------------------------------------------------
  free energy    TOTEN  =      -351.81395689 eV

  energy without entropy =     -351.50286141  energy(sigma->0) =     -351.71025839


--------------------------------------------------------------------------------------------------------




----------------------------------------- Iteration    1(  16)  ---------------------------------------


    POTLOK:  cpu time    0.8009: real time    1.6108
    SETDIJ:  cpu time    0.1000: real time    0.2110
     EDDAV:  cpu time  222.0093: real time  443.5050
       DOS:  cpu time    0.0100: real time    0.0311
    CHARGE:  cpu time   17.2884: real time   34.5190
    MIXING:  cpu time    0.0240: real time    0.0446
    --------------------------------------------
      LOOP:  cpu time  240.2335: real time  479.9224

 eigenvalue-minimisations  : 13560
 total energy-change (2. order) : 0.1506909E-05  (-0.2352139E-07)
 number of electron    1023.9995652 magnetization      44.7098833
 augmentation part      607.3456405 magnetization      38.2711085

 Broyden mixing:
  rms(total) = 0.11155E-03    rms(broyden)= 0.11146E-03
  rms(prec ) = 0.11458E-03
  weight for this iteration     100.00

 eigenvalues of (default mixing * dielectric matrix)
  average eigenvalue GAMMA=   1.2399
  2.6339  2.3432  2.0726  1.4334  0.9456  0.9456  0.5378  0.7496  0.6256  0.6758
  0.6758

 Free energy of the ion-electron system (eV)
  ---------------------------------------------------
  alpha Z        PSCENC =      7925.72117195
  Ewald energy   TEWEN  =   -142726.55438451
  -Hartree energ DENC   =    -66222.59159527
  -exchange      EXHF   =         0.00000000
  -V(xc)+E(xc)   XCENC  =      5592.95862570
  PAW double counting   =    170171.04660960  -179181.97548689
  entropy T*S    EENTRO =        -0.31107253
  eigenvalues    EBANDS =    -19923.39925406
  atomic energy  EATOM  =    224013.29143063
  Solvation  Ediel_sol  =         0.00000000
  ---------------------------------------------------
  free energy    TOTEN  =      -351.81395538 eV

  energy without entropy =     -351.50288285  energy(sigma->0) =     -351.71026454


--------------------------------------------------------------------------------------------------------




----------------------------------------- Iteration    1(  17)  ---------------------------------------


    POTLOK:  cpu time    0.8059: real time    1.5948
    SETDIJ:  cpu time    0.1000: real time    0.2011
     EDDAV:  cpu time  222.0532: real time  443.5742
       DOS:  cpu time    0.0100: real time    0.0304
    --------------------------------------------
      LOOP:  cpu time  222.9711: real time  445.4227

 eigenvalue-minimisations  : 13560
 total energy-change (2. order) : 0.7302151E-07  (-0.3398928E-08)
 number of electron    1023.9995652 magnetization      44.7098833
 augmentation part      607.3456405 magnetization      38.2711085

 Free energy of the ion-electron system (eV)
  ---------------------------------------------------
  alpha Z        PSCENC =      7925.72117195
  Ewald energy   TEWEN  =   -142726.55438451
  -Hartree energ DENC   =    -66222.58669357
  -exchange      EXHF   =         0.00000000
  -V(xc)+E(xc)   XCENC  =      5592.95867264
  PAW double counting   =    170170.99114477  -179181.91674827
  entropy T*S    EENTRO =        -0.31106515
  eigenvalues    EBANDS =    -19923.40748379
  atomic energy  EATOM  =    224013.29143063
  Solvation  Ediel_sol  =         0.00000000
  ---------------------------------------------------
  free energy    TOTEN  =      -351.81395531 eV

  energy without entropy =     -351.50289016  energy(sigma->0) =     -351.71026692


--------------------------------------------------------------------------------------------------------




 average (electrostatic) potential at core
  the test charge radii are     0.8614
  (the norm of the test charge is              1.0000)
       1 -81.5705       2 -81.5705       3 -81.5705       4 -81.5705       5 -81.5705
       6 -81.5705       7 -81.5705       8 -81.5705       9 -81.5705      10 -81.5705
      11 -81.5705      12 -81.5705      13 -81.5705      14 -81.5705      15 -81.5705
      16 -81.5705      17 -81.5705      18 -81.5705      19 -81.5705      20 -81.5705
      21 -81.5705      22 -81.5705      23 -81.5705      24 -81.5705      25 -81.5705
      26 -81.5705      27 -81.5705      28 -81.5705      29 -81.5705      30 -81.5705
      31 -81.5705      32 -81.5705      33 -81.5705      34 -81.5705      35 -81.5705
      36 -81.5705      37 -81.5705      38 -81.5705      39 -81.5705      40 -81.5705
      41 -81.5705      42 -81.5705      43 -81.5705      44 -81.5705      45 -81.5705
      46 -81.5705      47 -81.5705      48 -81.5705      49 -81.5705      50 -81.5705
      51 -81.5705      52 -81.5705      53 -81.5705      54 -81.5705      55 -81.5705
      56 -81.5705      57 -81.5705      58 -81.5705      59 -81.5705      60 -81.5705
      61 -81.5705      62 -81.5705      63 -81.5705      64 -81.5705
 
 
 
 E-fermi :   5.3938     XC(G=0): -12.4134     alpha+bet :-11.9025


 spin component 1

 k-point     1 :       0.0000    0.0000    0.0000
  band No.  band energies     occupation 
      1     -58.3277      1.00000
      2     -58.3276      1.00000
      3     -58.3276      1.00000
      4     -58.3276      1.00000
      5     -58.3222      1.00000
      6     -58.3222      1.00000
      7     -58.3222      1.00000
      8     -58.3026      1.00000
      9     -58.3026      1.00000
     10     -58.3026      1.00000
     11     -58.3026      1.00000
     12     -58.3026      1.00000
     13     -58.3026      1.00000
     14     -58.3026      1.00000
     15     -58.3026      1.00000
     16     -58.3026      1.00000
     17     -58.3026      1.00000
     18     -58.3026      1.00000
     19     -58.3026      1.00000
     20     -58.3026      1.00000
     21     -58.3026      1.00000
     22     -58.3026      1.00000
     23     -58.3026      1.00000
     24     -58.3026      1.00000
     25     -58.3026      1.00000
     26     -58.3026      1.00000
     27     -58.3026      1.00000
     28     -58.3026      1.00000
     29     -58.3026      1.00000
     30     -58.3026      1.00000
     31     -58.3026      1.00000
     32     -58.2941      1.00000
     33     -58.2941      1.00000
     34     -58.2941      1.00000
     35     -58.2941      1.00000
     36     -58.2941      1.00000
     37     -58.2941      1.00000
     38     -58.2940      1.00000
     39     -58.2940      1.00000
     40     -58.2940      1.00000
     41     -58.2940      1.00000
     42     -58.2940      1.00000
     43     -58.2940      1.00000
     44     -58.2856      1.00000
     45     -58.2856      1.00000
     46     -58.2856      1.00000
     47     -58.2856      1.00000
     48     -58.2856      1.00000
     49     -58.2856      1.00000
     50     -58.2855      1.00000
     51     -58.2855      1.00000
     52     -58.2855      1.00000
     53     -58.2855      1.00000
     54     -58.2855      1.00000
     55     -58.2855      1.00000
     56     -58.2756      1.00000
     57     -58.2756      1.00000
     58     -58.2756      1.00000
     59     -58.2756      1.00000
     60     -58.2756      1.00000
     61     -58.2756      1.00000
     62     -58.2731      1.00000
     63     -58.2731      1.00000
     64     -58.2730      1.00000
     65     -58.2730      1.00000
     66     -58.2730      1.00000
     67     -58.2730      1.00000
     68     -58.2730      1.00000
     69     -58.2730      1.00000
     70     -58.2671      1.00000
     71     -58.2671      1.00000
     72     -58.2671      1.00000
     73     -58.2671      1.00000
     74     -58.2671      1.00000
     75     -58.2671      1.00000
     76     -58.2669      1.00000
     77     -58.2669      1.00000
     78     -58.2669      1.00000
     79     -58.2669      1.00000
     80     -58.2669      1.00000
     81     -58.2669      1.00000
     82     -58.2669      1.00000
     83     -58.2669      1.00000
     84     -58.2669      1.00000
     85     -58.2669      1.00000
     86     -58.2669      1.00000
     87     -58.2669      1.00000
     88     -58.2637      1.00000
     89     -58.2637      1.00000
     90     -58.2637      1.00000
     91     -58.2637      1.00000
     92     -58.2637      1.00000
     93     -58.2637      1.00000
     94     -58.2637      1.00000
     95     -58.2637      1.00000
     96     -58.2637      1.00000
     97     -58.2637      1.00000
     98     -58.2637      1.00000
     99     -58.2637      1.00000
    100     -58.2637      1.00000
    101     -58.2637      1.00000
    102     -58.2637      1.00000
    103     -58.2637      1.00000
    104     -58.2637      1.00000
    105     -58.2637      1.00000
    106     -58.2637      1.00000
    107     -58.2637      1.00000
    108     -58.2637      1.00000
    109     -58.2637      1.00000
    110     -58.2637      1.00000
    111     -58.2637      1.00000
    112     -58.2526      1.00000
    113     -58.2526      1.00000
    114     -58.2526      1.00000
    115     -58.2526      1.00000
    116     -58.2526      1.00000
    117     -58.2526      1.00000
    118     -58.2509      1.00000
    119     -58.2509      1.00000
    120     -58.2509      1.00000
    121     -58.2509      1.00000
    122     -58.2509      1.00000
    123     -58.2509      1.00000
    124     -58.2509      1.00000
    125     -58.2509      1.00000
    126     -58.2509      1.00000
    127     -58.2509      1.00000
    128     -58.2509      1.00000
    129     -58.2509      1.00000
    130     -58.2508      1.00000
    131     -58.2508      1.00000
    132     -58.2508      1.00000
    133     -58.2508      1.00000
    134     -58.2508      1.00000
    135     -58.2508      1.00000
    136     -58.2508      1.00000
    137     -58.2508      1.00000
    138     -58.2508      1.00000
    139     -58.2508      1.00000
    140     -58.2508      1.00000
    141     -58.2508      1.00000
    142     -58.2444      1.00000
    143     -58.2444      1.00000
    144     -58.2444      1.00000
    145     -58.2444      1.00000
    146     -58.2444      1.00000
    147     -58.2444      1.00000
    148     -58.2444      1.00000
    149     -58.2444      1.00000
    150     -58.2444      1.00000
    151     -58.2444      1.00000
    152     -58.2444      1.00000
    153     -58.2444      1.00000
    154     -58.2443      1.00000
    155     -58.2443      1.00000
    156     -58.2443      1.00000
    157     -58.2443      1.00000
    158     -58.2443      1.00000
    159     -58.2443      1.00000
    160     -58.2443      1.00000
    161     -58.2443      1.00000
    162     -58.2410      1.00000
    163     -58.2410      1.00000
    164     -58.2410      1.00000
    165     -58.2410      1.00000
    166     -58.2410      1.00000
    167     -58.2410      1.00000
    168     -58.2409      1.00000
    169     -58.2409      1.00000
    170     -58.2409      1.00000
    171     -58.2409      1.00000
    172     -58.2409      1.00000
    173     -58.2409      1.00000
    174     -58.2260      1.00000
    175     -58.2260      1.00000
    176     -58.2260      1.00000
    177     -58.2260      1.00000
    178     -58.2260      1.00000
    179     -58.2260      1.00000
    180     -58.2260      1.00000
    181     -58.2260      1.00000
    182     -58.2260      1.00000
    183     -58.2260      1.00000
    184     -58.2260      1.00000
    185     -58.2260      1.00000
    186     -58.2260      1.00000
    187     -58.2260      1.00000
    188     -58.2260      1.00000
    189     -58.2260      1.00000
    190     -58.2241      1.00000
    191     -58.2240      1.00000
    192     -58.2240      1.00000
    193      -2.2272      1.00000
    194      -0.2974      1.00000
    195      -0.2974      1.00000
    196      -0.2974      1.00000
    197      -0.2974      1.00000
    198      -0.2974      1.00000
    199      -0.2974      1.00000
    200      -0.2974      1.00000
    201      -0.2974      1.00000
    202       0.2935      1.00000
    203       0.2935      1.00000
    204       0.2935      1.00000
    205       0.2935      1.00000
    206       0.2935      1.00000
    207       0.2935      1.00000
    208       1.5607      1.00000
    209       1.5607      1.00000
    210       1.5607      1.00000
    211       1.5607      1.00000
    212       1.8226      1.00000
    213       1.8226      1.00000
    214       1.8226      1.00000
    215       1.9701      1.00000
    216       1.9701      1.00000
    217       1.9701      1.00000
    218       1.9701      1.00000
    219       1.9701      1.00000
    220       1.9701      1.00000
    221       1.9701      1.00000
    222       1.9701      1.00000
    223       1.9701      1.00000
    224       1.9701      1.00000
    225       1.9701      1.00000
    226       1.9701      1.00000
    227       2.1308      1.00000
    228       2.1308      1.00000
    229       2.1308      1.00000
    230       2.1788      1.00000
    231       2.1788      1.00000
    232       2.1788      1.00000
    233       2.1788      1.00000
    234       2.1788      1.00000
    235       2.1788      1.00000
    236       2.1788      1.00000
    237       2.1788      1.00000
    238       2.1788      1.00000
    239       2.1788      1.00000
    240       2.1788      1.00000
    241       2.1788      1.00000
    242       2.1788      1.00000
    243       2.1788      1.00000
    244       2.1788      1.00000
    245       2.1788      1.00000
    246       2.1788      1.00000
    247       2.1788      1.00000
    248       2.1788      1.00000
    249       2.1788      1.00000
    250       2.1788      1.00000
    251       2.1788      1.00000
    252       2.1788      1.00000
    253       2.1788      1.00000
    254       2.4977      1.00000
    255       2.4977      1.00000
    256       2.4977      1.00000
    257       2.4977      1.00000
    258       2.4977      1.00000
    259       2.4977      1.00000
    260       2.7049      1.00000
    261       2.7049      1.00000
    262       2.7049      1.00000
    263       2.7049      1.00000
    264       2.7049      1.00000
    265       2.7049      1.00000
    266       2.7049      1.00000
    267       2.7049      1.00000
    268       2.7049      1.00000
    269       2.7049      1.00000
    270       2.7049      1.00000
    271       2.7049      1.00000
    272       2.7049      1.00000
    273       2.7049      1.00000
    274       2.7049      1.00000
    275       2.7049      1.00000
    276       2.7049      1.00000
    277       2.7049      1.00000
    278       2.7049      1.00000
    279       2.7049      1.00000
    280       2.7049      1.00000
    281       2.7049      1.00000
    282       2.7049      1.00000
    283       2.7049      1.00000
    284       2.7384      1.00000
    285       2.7384      1.00000
    286       2.7384      1.00000
    287       2.7384      1.00000
    288       2.7384      1.00000
    289       2.7384      1.00000
    290       2.9447      1.00000
    291       2.9447      1.00000
    292       2.9447      1.00000
    293       2.9447      1.00000
    294       2.9447      1.00000
    295       2.9447      1.00000
    296       2.9447      1.00000
    297       2.9447      1.00000
    298       2.9447      1.00000
    299       2.9447      1.00000
    300       2.9447      1.00000
    301       2.9447      1.00000
    302       2.9468      1.00000
    303       2.9468      1.00000
    304       2.9468      1.00000
    305       2.9468      1.00000
    306       2.9468      1.00000
    307       2.9468      1.00000
    308       2.9468      1.00000
    309       2.9468      1.00000
    310       2.9468      1.00000
    311       2.9468      1.00000
    312       2.9468      1.00000
    313       2.9468      1.00000
    314       3.1723      1.00000
    315       3.1723      1.00000
    316       3.1723      1.00000
[...]
      1.894688  3.789375  1.894688     0.067734   -0.101888    0.025612  
      3.789375  5.684063  1.894688     0.067734   -0.101888    0.025612  
      5.684063  7.578750  1.894688     0.067734   -0.101888    0.025612  
      1.894688  1.894688  3.789375     0.067734   -0.101888    0.025612  
      3.789375  3.789375  3.789375     0.067734   -0.101888    0.025612  
      5.684063  5.684063  3.789375     0.067734   -0.101888    0.025612  
      7.578750  7.578750  3.789375     0.067734   -0.101888    0.025612  
      3.789375  1.894688  5.684063     0.067734   -0.101888    0.025612  
      5.684063  3.789375  5.684063     0.067734   -0.101888    0.025612  
      7.578750  5.684063  5.684063     0.067734   -0.101888    0.025612  
      9.473438  7.578750  5.684063     0.067734   -0.101888    0.025612  
      5.684063  1.894688  7.578750     0.067734   -0.101888    0.025612  
      7.578750  3.789375  7.578750     0.067734   -0.101888    0.025612  
      9.473438  5.684063  7.578750     0.067734   -0.101888    0.025612  
     11.368125  7.578750  7.578750     0.067734   -0.101888    0.025612  
      0.000000  3.789375  3.789375     0.067734   -0.101888    0.025612  
      1.894688  5.684063  3.789375     0.067734   -0.101888    0.025612  
      3.789375  7.578750  3.789375     0.067734   -0.101888    0.025612  
      5.684063  9.473438  3.789375     0.067734   -0.101888    0.025612  
      1.894688  3.789375  5.684063     0.067734   -0.101888    0.025612  
      3.789375  5.684063  5.684063     0.067734   -0.101888    0.025612  
      5.684063  7.578750  5.684063     0.067734   -0.101888    0.025612  
      7.578750  9.473438  5.684063     0.067734   -0.101888    0.025612  
      3.789375  3.789375  7.578750     0.067734   -0.101888    0.025612  
      5.684063  5.684063  7.578750     0.067734   -0.101888    0.025612  
      7.578750  7.578750  7.578750     0.067734   -0.101888    0.025612  
      9.473438  9.473438  7.578750     0.067734   -0.101888    0.025612  
      5.684063  3.789375  9.473438     0.067734   -0.101888    0.025612  
      7.578750  5.684063  9.473438     0.067734   -0.101888    0.025612  
      9.473438  7.578750  9.473438     0.067734   -0.101888    0.025612  
     11.368125  9.473438  9.473438     0.067734   -0.101888    0.025612  
      0.000000  5.684063  5.684063     0.067734   -0.101888    0.025612  
      1.894688  7.578750  5.684063     0.067734   -0.101888    0.025612  
      3.789375  9.473438  5.684063     0.067734   -0.101888    0.025612  
      5.684063 11.368125  5.684063     0.067734   -0.101888    0.025612  
      1.894688  5.684063  7.578750     0.067734   -0.101888    0.025612  
      3.789375  7.578750  7.578750     0.067734   -0.101888    0.025612  
      5.684063  9.473438  7.578750     0.067734   -0.101888    0.025612  
      7.578750 11.368125  7.578750     0.067734   -0.101888    0.025612  
      3.789375  5.684063  9.473438     0.067734   -0.101888    0.025612  
      5.684063  7.578750  9.473438     0.067734   -0.101888    0.025612  
      7.578750  9.473438  9.473438     0.067734   -0.101888    0.025612  
      9.473438 11.368125  9.473438     0.067734   -0.101888    0.025612  
      5.684063  5.684063 11.368125     0.067734   -0.101888    0.025612  
      7.578750  7.578750 11.368125     0.067734   -0.101888    0.025612  
      9.473438  9.473438 11.368125     0.067734   -0.101888    0.025612  
     11.368125 11.368125 11.368125     0.067734   -0.101888    0.025612  
 
 192 f/i=    0.000001 THz     0.000006 2PiTHz    0.000030 cm-1     0.000004 meV
             X         Y         Z           dx          dy          dz
      0.000000  0.000000  0.000000    -0.015000    0.020783    0.122344  
      1.894688  1.894688  0.000000    -0.015000    0.020783    0.122344  
      3.789375  3.789375  0.000000    -0.015000    0.020783    0.122344  
      5.684063  5.684063  0.000000    -0.015000    0.020783    0.122344  
      1.894688  0.000000  1.894688    -0.015000    0.020783    0.122344  
      3.789375  1.894688  1.894688    -0.015000    0.020783    0.122344  
      5.684063  3.789375  1.894688    -0.015000    0.020783    0.122344  
      7.578750  5.684063  1.894688    -0.015000    0.020783    0.122344  
      3.789375  0.000000  3.789375    -0.015000    0.020783    0.122344  
      5.684063  1.894688  3.789375    -0.015000    0.020783    0.122344  
      7.578750  3.789375  3.789375    -0.015000    0.020783    0.122344  
      9.473438  5.684063  3.789375    -0.015000    0.020783    0.122344  
      5.684063  0.000000  5.684063    -0.015000    0.020783    0.122344  
      7.578750  1.894688  5.684063    -0.015000    0.020783    0.122344  
      9.473438  3.789375  5.684063    -0.015000    0.020783    0.122344  
     11.368125  5.684063  5.684063    -0.015000    0.020783    0.122344  
      0.000000  1.894688  1.894688    -0.015000    0.020783    0.122344  
      1.894688  3.789375  1.894688    -0.015000    0.020783    0.122344  
      3.789375  5.684063  1.894688    -0.015000    0.020783    0.122344  
      5.684063  7.578750  1.894688    -0.015000    0.020783    0.122344  
      1.894688  1.894688  3.789375    -0.015000    0.020783    0.122344  
      3.789375  3.789375  3.789375    -0.015000    0.020783    0.122344  
      5.684063  5.684063  3.789375    -0.015000    0.020783    0.122344  
      7.578750  7.578750  3.789375    -0.015000    0.020783    0.122344  
      3.789375  1.894688  5.684063    -0.015000    0.020783    0.122344  
      5.684063  3.789375  5.684063    -0.015000    0.020783    0.122344  
      7.578750  5.684063  5.684063    -0.015000    0.020783    0.122344  
      9.473438  7.578750  5.684063    -0.015000    0.020783    0.122344  
      5.684063  1.894688  7.578750    -0.015000    0.020783    0.122344  
      7.578750  3.789375  7.578750    -0.015000    0.020783    0.122344  
      9.473438  5.684063  7.578750    -0.015000    0.020783    0.122344  
     11.368125  7.578750  7.578750    -0.015000    0.020783    0.122344  
      0.000000  3.789375  3.789375    -0.015000    0.020783    0.122344  
      1.894688  5.684063  3.789375    -0.015000    0.020783    0.122344  
      3.789375  7.578750  3.789375    -0.015000    0.020783    0.122344  
      5.684063  9.473438  3.789375    -0.015000    0.020783    0.122344  
      1.894688  3.789375  5.684063    -0.015000    0.020783    0.122344  
      3.789375  5.684063  5.684063    -0.015000    0.020783    0.122344  
      5.684063  7.578750  5.684063    -0.015000    0.020783    0.122344  
      7.578750  9.473438  5.684063    -0.015000    0.020783    0.122344  
      3.789375  3.789375  7.578750    -0.015000    0.020783    0.122344  
      5.684063  5.684063  7.578750    -0.015000    0.020783    0.122344  
      7.578750  7.578750  7.578750    -0.015000    0.020783    0.122344  
      9.473438  9.473438  7.578750    -0.015000    0.020783    0.122344  
      5.684063  3.789375  9.473438    -0.015000    0.020783    0.122344  
      7.578750  5.684063  9.473438    -0.015000    0.020783    0.122344  
      9.473438  7.578750  9.473438    -0.015000    0.020783    0.122344  
     11.368125  9.473438  9.473438    -0.015000    0.020783    0.122344  
      0.000000  5.684063  5.684063    -0.015000    0.020783    0.122344  
      1.894688  7.578750  5.684063    -0.015000    0.020783    0.122344  
      3.789375  9.473438  5.684063    -0.015000    0.020783    0.122344  
      5.684063 11.368125  5.684063    -0.015000    0.020783    0.122344  
      1.894688  5.684063  7.578750    -0.015000    0.020783    0.122344  
      3.789375  7.578750  7.578750    -0.015000    0.020783    0.122344  
      5.684063  9.473438  7.578750    -0.015000    0.020783    0.122344  
      7.578750 11.368125  7.578750    -0.015000    0.020783    0.122344  
      3.789375  5.684063  9.473438    -0.015000    0.020783    0.122344  
      5.684063  7.578750  9.473438    -0.015000    0.020783    0.122344  
      7.578750  9.473438  9.473438    -0.015000    0.020783    0.122344  
      9.473438 11.368125  9.473438    -0.015000    0.020783    0.122344  
      5.684063  5.684063 11.368125    -0.015000    0.020783    0.122344  
      7.578750  7.578750 11.368125    -0.015000    0.020783    0.122344  
      9.473438  9.473438 11.368125    -0.015000    0.020783    0.122344  
     11.368125 11.368125 11.368125    -0.015000    0.020783    0.122344  
 

 ELASTIC MODULI CONTR FROM IONIC RELAXATION (kBar)
 Direction    XX          YY          ZZ          XY          YZ          ZX
 --------------------------------------------------------------------------------
 XX           0.0000     -0.0000     -0.0000      0.0000     -0.0000      0.0000
 YY           0.0000     -0.0000     -0.0000      0.0000     -0.0000      0.0000
 ZZ           0.0000      0.0000     -0.0000      0.0000     -0.0000      0.0000
 XY          -0.0000     -0.0000     -0.0000      0.0000      0.0000     -0.0000
 YZ          -0.0000     -0.0000      0.0000     -0.0000      0.0000     -0.0000
 ZX           0.0000     -0.0000     -0.0000      0.0000      0.0000     -0.0000
 --------------------------------------------------------------------------------



--------------------------------------------------------------------------------------------------------


  LATTYP: Found a face centered cubic cell.
 ALAT       =    15.1575000000
  
  Lattice vectors:
  
 A1 = (   0.0000000000,   7.5787500000,   7.5787500000)
 A2 = (   7.5787500000,   0.0000000000,   7.5787500000)
 A3 = (   7.5787500000,   7.5787500000,   0.0000000000)


Analysis of symmetry for initial positions (statically):
=====================================================================
 Subroutine PRICEL returns following result:
 
  LATTYP: Found a face centered cubic cell.
 ALAT       =     3.7893750000
  
  Lattice vectors:
  
 A1 = (   0.0000000000,   1.8946875000,   1.8946875000)
 A2 = (   1.8946875000,   0.0000000000,   1.8946875000)
 A3 = (   1.8946875000,   1.8946875000,   0.0000000000)
 
  64 primitive cells build up your supercell.
 

 Routine SETGRP: Setting up the symmetry group for a 
 face centered cubic supercell.


 Subroutine GETGRP returns: Found 48 space group operations
 (whereof 48 operations were pure point group operations)
 out of a pool of 48 trial point group operations.


The static configuration has the point symmetry O_h .


Analysis of symmetry for dynamics (positions and initial velocities):
=====================================================================
 Subroutine PRICEL returns following result:
 
  LATTYP: Found a face centered cubic cell.
 ALAT       =     3.7893750000
  
  Lattice vectors:
  
 A1 = (   0.0000000000,   1.8946875000,   1.8946875000)
 A2 = (   1.8946875000,   0.0000000000,   1.8946875000)
 A3 = (   1.8946875000,   1.8946875000,   0.0000000000)
 
  64 primitive cells build up your supercell.
 

 Routine SETGRP: Setting up the symmetry group for a 
 face centered cubic supercell.


 Subroutine GETGRP returns: Found 48 space group operations
 (whereof 48 operations were pure point group operations)
 out of a pool of 48 trial point group operations.


The dynamic configuration has the point symmetry O_h .


Analysis of structural, dynamic, and magnetic symmetry:
=====================================================================
 Subroutine PRICEL returns following result:
 
  LATTYP: Found a face centered cubic cell.
 ALAT       =     3.7893750000
  
  Lattice vectors:
  
 A1 = (   0.0000000000,   1.8946875000,   1.8946875000)
 A2 = (   1.8946875000,   0.0000000000,   1.8946875000)
 A3 = (   1.8946875000,   1.8946875000,   0.0000000000)
 
  64 primitive cells build up your supercell.
 

 Routine SETGRP: Setting up the symmetry group for a 
 face centered cubic supercell.


 Subroutine GETGRP returns: Found 48 space group operations
 (whereof 48 operations were pure point group operations)
 out of a pool of 48 trial point group operations.


The magnetic configuration has the point symmetry O_h .


 Subroutine INISYM returns: Found 48 space group operations
 (whereof 48 operations are pure point group operations),
 and found    64 'primitive' translations

 
 KPOINTS: Zr 15x15x15                             

Automatic generation of k-mesh.
Space group operators:
 irot       det(A)        alpha          n_x          n_y          n_z        tau_x        tau_y        tau_z
    1     1.000000     0.000001     1.000000     0.000000     0.000000     0.000000     0.000000     0.000000
    2    -1.000000     0.000001     1.000000     0.000000     0.000000     0.000000     0.000000     0.000000
    3     1.000000   120.000000    -0.577350    -0.577350    -0.577350     0.000000     0.000000     0.000000
    4    -1.000000   120.000000    -0.577350    -0.577350    -0.577350     0.000000     0.000000     0.000000
    5     1.000000   120.000000     0.577350     0.577350     0.577350     0.000000     0.000000     0.000000
    6    -1.000000   120.000000     0.577350     0.577350     0.577350     0.000000     0.000000     0.000000
    7     1.000000    90.000000     0.000000     0.000000    -1.000000     0.000000     0.000000     0.000000
    8    -1.000000    90.000000     0.000000     0.000000    -1.000000     0.000000     0.000000     0.000000
    9     1.000000   180.000000     0.000000     0.707107     0.707107     0.000000     0.000000     0.000000
   10    -1.000000   180.000000     0.000000     0.707107     0.707107     0.000000     0.000000     0.000000
   11     1.000000    90.000000     0.000000     1.000000     0.000000     0.000000     0.000000     0.000000
   12    -1.000000    90.000000     0.000000     1.000000     0.000000     0.000000     0.000000     0.000000
   13     1.000000   180.000000     0.000000     0.000000     1.000000     0.000000     0.000000     0.000000
   14    -1.000000   180.000000     0.000000     0.000000     1.000000     0.000000     0.000000     0.000000
   15     1.000000   120.000000    -0.577350     0.577350     0.577350     0.000000     0.000000     0.000000
   16    -1.000000   120.000000    -0.577350     0.577350     0.577350     0.000000     0.000000     0.000000
   17     1.000000   120.000000    -0.577350     0.577350    -0.577350     0.000000     0.000000     0.000000
   18    -1.000000   120.000000    -0.577350     0.577350    -0.577350     0.000000     0.000000     0.000000
   19     1.000000    90.000000     0.000000     0.000000     1.000000     0.000000     0.000000     0.000000
   20    -1.000000    90.000000     0.000000     0.000000     1.000000     0.000000     0.000000     0.000000
   21     1.000000    90.000000    -1.000000     0.000000     0.000000     0.000000     0.000000     0.000000
   22    -1.000000    90.000000    -1.000000     0.000000     0.000000     0.000000     0.000000     0.000000
   23     1.000000   180.000000     0.707107     0.000000     0.707107     0.000000     0.000000     0.000000
   24    -1.000000   180.000000     0.707107     0.000000     0.707107     0.000000     0.000000     0.000000
   25     1.000000   120.000000     0.577350    -0.577350     0.577350     0.000000     0.000000     0.000000
   26    -1.000000   120.000000     0.577350    -0.577350     0.577350     0.000000     0.000000     0.000000
   27     1.000000   120.000000    -0.577350    -0.577350     0.577350     0.000000     0.000000     0.000000
   28    -1.000000   120.000000    -0.577350    -0.577350     0.577350     0.000000     0.000000     0.000000
   29     1.000000   180.000000     1.000000     0.000000     0.000000     0.000000     0.000000     0.000000
   30    -1.000000   180.000000     1.000000     0.000000     0.000000     0.000000     0.000000     0.000000
   31     1.000000    90.000000     0.000000    -1.000000     0.000000     0.000000     0.000000     0.000000
   32    -1.000000    90.000000     0.000000    -1.000000     0.000000     0.000000     0.000000     0.000000
   33     1.000000   180.000000     0.707107     0.707107     0.000000     0.000000     0.000000     0.000000
   34    -1.000000   180.000000     0.707107     0.707107     0.000000     0.000000     0.000000     0.000000
   35     1.000000    90.000000     1.000000     0.000000     0.000000     0.000000     0.000000     0.000000
   36    -1.000000    90.000000     1.000000     0.000000     0.000000     0.000000     0.000000     0.000000
   37     1.000000   120.000000     0.577350    -0.577350    -0.577350     0.000000     0.000000     0.000000
   38    -1.000000   120.000000     0.577350    -0.577350    -0.577350     0.000000     0.000000     0.000000
   39     1.000000   180.000000     0.000000     1.000000     0.000000     0.000000     0.000000     0.000000
   40    -1.000000   180.000000     0.000000     1.000000     0.000000     0.000000     0.000000     0.000000
   41     1.000000   120.000000     0.577350     0.577350    -0.577350     0.000000     0.000000     0.000000
   42    -1.000000   120.000000     0.577350     0.577350    -0.577350     0.000000     0.000000     0.000000
   43     1.000000   180.000000     0.000000    -0.707107     0.707107     0.000000     0.000000     0.000000
   44    -1.000000   180.000000     0.000000    -0.707107     0.707107     0.000000     0.000000     0.000000
   45     1.000000   180.000000     0.707107    -0.707107     0.000000     0.000000     0.000000     0.000000
   46    -1.000000   180.000000     0.707107    -0.707107     0.000000     0.000000     0.000000     0.000000
   47     1.000000   180.000000     0.707107     0.000000    -0.707107     0.000000     0.000000     0.000000
   48    -1.000000   180.000000     0.707107     0.000000    -0.707107     0.000000     0.000000     0.000000
 
 Subroutine IBZKPT returns following result:
 ===========================================
 
 Found     10 irreducible k-points:
 
 Following reciprocal coordinates:
            Coordinates               Weight
  0.000000  0.000000  0.000000      1.000000
  0.200000  0.000000  0.000000      8.000000
  0.400000  0.000000  0.000000      8.000000
  0.200000  0.200000  0.000000      6.000000
  0.400000  0.200000  0.000000     24.000000
 -0.400000  0.200000  0.000000     24.000000
 -0.200000  0.200000  0.000000     12.000000
  0.400000  0.400000  0.000000      6.000000
 -0.400000  0.400000  0.000000     12.000000
 -0.400000  0.400000  0.200000     24.000000
 
 Following cartesian coordinates:
            Coordinates               Weight
  0.000000  0.000000  0.000000      1.000000
 -0.013195  0.013195  0.013195      8.000000
 -0.026390  0.026390  0.026390      8.000000
  0.000000  0.000000  0.026390      6.000000
 -0.013195  0.013195  0.039584     24.000000
  0.039584 -0.039584 -0.013195     24.000000
  0.026390 -0.026390  0.000000     12.000000
  0.000000  0.000000  0.052779      6.000000
  0.052779 -0.052779  0.000000     12.000000
  0.065974 -0.039584 -0.013195     24.000000
 
 writing wavefunctions
     LOOP+:  cpu time13770.0156: real time27516.8153
    4ORBIT:  cpu time    0.0000: real time    0.0000

 total amount of memory used by VASP on root node   972460. kBytes
========================================================================

   base      :      30000. kBytes
   nonlr-proj:      53955. kBytes
   fftplans  :      24743. kBytes
   grid      :      77537. kBytes
   one-center:       1990. kBytes
   wavefun   :     784235. kBytes
 
  
  
 General timing and accounting informations for this job:
 ========================================================
  
                  Total CPU time used (sec):    32475.318
                            User time (sec):    32438.154
                          System time (sec):       37.164
                         Elapsed time (sec):    64898.008
  
                   Maximum memory used (kb):     3025504.
                   Average memory used (kb):           0.
  
                          Minor page faults:      2033994
                          Major page faults:            0
                 Voluntary context switches:         1846
