       N       E                     dE             d eps       ncg     rms          rms(c)
DAV:   1     0.115282244435E+03    0.11528E+03   -0.97800E+03 17552   0.119E+03
DAV:   2    -0.415052528727E+01   -0.11943E+03   -0.11137E+03 17704   0.336E+02
DAV:   3    -0.643374741279E+01   -0.22832E+01   -0.22753E+01 20008   0.537E+01
DAV:   4    -0.645278792102E+01   -0.19041E-01   -0.19040E-01 18712   0.471E+00
DAV:   5    -0.645316765485E+01   -0.37973E-03   -0.37977E-03 20568   0.655E-01    0.845E+00
DAV:   6    -0.627415745713E+01    0.17901E+00   -0.48208E+00 17992   0.488E+01    0.832E+00
DAV:   7    -0.553242164627E+01    0.74174E+00   -0.12751E+00 17688   0.248E+01    0.810E-01
DAV:   8    -0.552580325152E+01    0.66184E-02   -0.13735E-02 20272   0.101E+00    0.324E-01
DAV:   9    -0.552429266646E+01    0.15106E-02   -0.80419E-04 24192   0.408E-01    0.717E-02
DAV:  10    -0.552434480430E+01   -0.52138E-04   -0.69851E-05 18440   0.856E-02    0.383E-02
DAV:  11    -0.552434688795E+01   -0.20836E-05   -0.77788E-06 20504   0.459E-02    0.771E-03
DAV:  12    -0.552434411805E+01    0.27699E-05   -0.14917E-06 15808   0.125E-02    0.521E-03
DAV:  13    -0.552434752795E+01   -0.34099E-05   -0.34290E-07  9680   0.858E-03    0.887E-04
DAV:  14    -0.552434779441E+01   -0.26646E-06   -0.45178E-08  9056   0.247E-03
   1 F= -.55243478E+01 E0= -.55243478E+01  d E =0.000000E+00  mag=     0.6938
