<?xml version="1.0" encoding="ISO-8859-1"?>
<modeling>
 <generator>
  <i name="program" type="string">vasp </i>
  <i name="version" type="string">5.4.1  </i>
  <i name="subversion" type="string">05Feb16 (build Oct 12 2016 17:31:35) complex                          parallel </i>
  <i name="platform" type="string">IFC91_ompi </i>
  <i name="date" type="string">2020 09 07 </i>
  <i name="time" type="string">22:42:49 </i>
 </generator>
 <incar>
  <i type="string" name="SYSTEM"> phonon of Zr bcc - omiga</i>
  <i type="string" name="PREC">a</i>
  <i type="int" name="ISPIN">     2</i>
  <i type="int" name="IBRION">     6</i>
  <i name="EDIFF">      0.00000100</i>
  <i type="int" name="NSW">     1</i>
  <v name="MAGMOM">      1.00000000      1.00000000      1.00000000      1.00000000      1.00000000      1.00000000      1.00000000      1.00000000      1.00000000      1.00000000      1.00000000      1.00000000      1.00000000      1.00000000      1.00000000      1.00000000      1.00000000      1.00000000      1.00000000      1.00000000
      1.00000000      1.00000000      1.00000000      1.00000000      1.00000000      1.00000000      1.00000000      1.00000000      1.00000000      1.00000000      1.00000000      1.00000000      1.00000000      1.00000000      1.00000000      1.00000000      1.00000000      1.00000000      1.00000000      1.00000000
      1.00000000      1.00000000      1.00000000      1.00000000      1.00000000      1.00000000      1.00000000      1.00000000      1.00000000      1.00000000      1.00000000      1.00000000      1.00000000      1.00000000      1.00000000      1.00000000      1.00000000      1.00000000      1.00000000      1.00000000
      1.00000000      1.00000000      1.00000000      1.00000000</v>
  <i type="string" name="LREAL">Auto</i>
  <i type="int" name="ISMEAR">     1</i>
  <i type="int" name="NWRITE">     0</i>
  <v type="int" name="KPOINT_BSE">    -1     0     0     0</v>
 </incar>
 <kpoints>
  <generation param="Gamma">
   <v type="int" name="divisions">       5        5        5 </v>
   <v name="usershift">      0.00000000       0.00000000       0.00000000 </v>
   <v name="genvec1">      0.20000000       0.00000000       0.00000000 </v>
   <v name="genvec2">      0.00000000       0.20000000       0.00000000 </v>
   <v name="genvec3">      0.00000000       0.00000000       0.20000000 </v>
   <v name="shift">      0.00000000       0.00000000       0.00000000 </v>
  </generation>
  <varray name="kpointlist" >
   <v>       0.00000000       0.00000000       0.00000000 </v>
   <v>       0.20000000       0.00000000       0.00000000 </v>
   <v>       0.40000000       0.00000000       0.00000000 </v>
   <v>       0.20000000       0.20000000       0.00000000 </v>
   <v>       0.40000000       0.20000000       0.00000000 </v>
   <v>      -0.40000000       0.20000000       0.00000000 </v>
   <v>      -0.20000000       0.20000000       0.00000000 </v>
   <v>       0.40000000       0.40000000       0.00000000 </v>
   <v>      -0.40000000       0.40000000       0.00000000 </v>
   <v>      -0.40000000       0.40000000       0.20000000 </v>
  </varray>
  <varray name="weights" >
   <v>       0.00800000 </v>
   <v>       0.06400000 </v>
   <v>       0.06400000 </v>
   <v>       0.04800000 </v>
   <v>       0.19200000 </v>
   <v>       0.19200000 </v>
   <v>       0.09600000 </v>
   <v>       0.04800000 </v>
   <v>       0.09600000 </v>
   <v>       0.19200000 </v>
  </varray>
 </kpoints>
 <parameters>
  <separator name="general" >
   <i type="string" name="SYSTEM">phonon of Zr bcc - omiga</i>
   <i type="logical" name="LCOMPAT"> F  </i>
  </separator>
  <separator name="electronic" >
   <i type="string" name="PREC">a</i>
   <i name="ENMAX">    367.94500000</i>
   <i name="ENAUG">    703.44300000</i>
   <i name="EDIFF">      0.00000100</i>
   <i type="int" name="IALGO">    38</i>
   <i type="int" name="IWAVPR">    11</i>
   <i type="int" name="NBANDS">   648</i>
   <i name="NELECT">   1024.00000000</i>
   <i type="int" name="TURBO">     0</i>
   <i type="int" name="IRESTART">     0</i>
   <i type="int" name="NREBOOT">     0</i>
   <i type="int" name="NMIN">     0</i>
   <i name="EREF">      0.00000000</i>
   <separator name="electronic smearing" >
    <i type="int" name="ISMEAR">     1</i>
    <i name="SIGMA">      0.20000000</i>
    <i name="KSPACING">      0.50000000</i>
    <i type="logical" name="KGAMMA"> T  </i>
   </separator>
   <separator name="electronic projectors" >
    <i type="logical" name="LREAL"> T  </i>
    <v name="ROPT">     -0.00025000</v>
    <i type="int" name="LMAXPAW">  -100</i>
    <i type="int" name="LMAXMIX">     2</i>
    <i type="logical" name="NLSPLINE"> F  </i>
   </separator>
   <separator name="electronic startup" >
    <i type="int" name="ISTART">     0</i>
    <i type="int" name="ICHARG">     2</i>
    <i type="int" name="INIWAV">     1</i>
   </separator>
   <separator name="electronic spin" >
    <i type="int" name="ISPIN">     2</i>
    <i type="logical" name="LNONCOLLINEAR"> F  </i>
    <v name="MAGMOM">      1.00000000      1.00000000      1.00000000      1.00000000      1.00000000      1.00000000      1.00000000      1.00000000      1.00000000      1.00000000      1.00000000      1.00000000      1.00000000      1.00000000      1.00000000      1.00000000      1.00000000      1.00000000      1.00000000      1.00000000
      1.00000000      1.00000000      1.00000000      1.00000000      1.00000000      1.00000000      1.00000000      1.00000000      1.00000000      1.00000000      1.00000000      1.00000000      1.00000000      1.00000000      1.00000000      1.00000000      1.00000000      1.00000000      1.00000000      1.00000000
      1.00000000      1.00000000      1.00000000      1.00000000      1.00000000      1.00000000      1.00000000      1.00000000      1.00000000      1.00000000      1.00000000      1.00000000      1.00000000      1.00000000      1.00000000      1.00000000      1.00000000      1.00000000      1.00000000      1.00000000
      1.00000000      1.00000000      1.00000000      1.00000000</v>
    <i name="NUPDOWN">     -1.00000000</i>
    <i type="logical" name="LSORBIT"> F  </i>
    <v name="SAXIS">      0.00000000      0.00000000      1.00000000</v>
    <i type="logical" name="LSPIRAL"> F  </i>
    <v name="QSPIRAL">      0.00000000      0.00000000      0.00000000</v>
    <i type="logical" name="LZEROZ"> F  </i>
   </separator>
   <separator name="electronic exchange-correlation" >
    <i type="logical" name="LASPH"> F  </i>
    <i type="logical" name="LMETAGGA"> F  </i>
   </separator>
   <separator name="electronic convergence" >
    <i type="int" name="NELM">    60</i>
    <i type="int" name="NELMDL">     0</i>
    <i type="int" name="NELMIN">     2</i>
    <i name="ENINI">    367.94500000</i>
    <separator name="electronic convergence detail" >
     <i type="logical" name="LDIAG"> T  </i>
     <i type="logical" name="LSUBROT"> F  </i>
     <i name="WEIMIN">      0.00100000</i>
     <i name="EBREAK">      0.00000000</i>
     <i name="DEPER">      0.30000000</i>
     <i type="int" name="NRMM">     4</i>
     <i name="TIME">      0.40000000</i>
    </separator>
   </separator>
   <separator name="electronic mixer" >
    <i name="AMIX">      0.40000000</i>
    <i name="BMIX">      1.00000000</i>
    <i name="AMIN">      0.10000000</i>
    <i name="AMIX_MAG">      1.60000000</i>
    <i name="BMIX_MAG">      1.00000000</i>
    <separator name="electronic mixer details" >
     <i type="int" name="IMIX">     4</i>
     <i type="logical" name="MIXFIRST"> F  </i>
     <i type="int" name="MAXMIX">   -45</i>
     <i name="WC">    100.00000000</i>
     <i type="int" name="INIMIX">     1</i>
     <i type="int" name="MIXPRE">     1</i>
     <i type="int" name="MREMOVE">     5</i>
    </separator>
   </separator>
   <separator name="electronic dipolcorrection" >
    <i type="logical" name="LDIPOL"> F  </i>
    <i type="logical" name="LMONO"> F  </i>
    <i type="int" name="IDIPOL">     0</i>
    <i name="EPSILON">      1.00000000</i>
    <v name="DIPOL">   -100.00000000   -100.00000000   -100.00000000</v>
    <i name="EFIELD">      0.00000000</i>
   </separator>
  </separator>
  <separator name="grids" >
   <i type="int" name="NGX">    70</i>
   <i type="int" name="NGY">    70</i>
   <i type="int" name="NGZ">    70</i>
   <i type="int" name="NGXF">   140</i>
   <i type="int" name="NGYF">   140</i>
   <i type="int" name="NGZF">   140</i>
   <i type="logical" name="ADDGRID"> F  </i>
  </separator>
  <separator name="ionic" >
   <i type="int" name="NSW">   805</i>
   <i type="int" name="IBRION">     6</i>
   <i type="int" name="ISIF">     2</i>
   <i name="PSTRESS">      0.00000000</i>
   <i name="EDIFFG">      0.00001000</i>
   <i type="int" name="NFREE">     2</i>
   <i name="POTIM">      0.50000000</i>
   <i name="SMASS">     -3.00000000</i>
   <i name="SCALEE">      1.00000000</i>
  </separator>
  <separator name="ionic md" >
   <i name="TEBEG">      0.00010000</i>
   <i name="TEEND">      0.00010000</i>
   <i type="int" name="NBLOCK">     1</i>
   <i type="int" name="KBLOCK">     1</i>
   <i type="int" name="NPACO">   256</i>
   <i name="APACO">     16.00000000</i>
  </separator>
  <separator name="symmetry" >
   <i type="int" name="ISYM">     2</i>
   <i name="SYMPREC">      0.00001000</i>
  </separator>
  <separator name="dos" >
   <i type="logical" name="LORBIT"> F  </i>
   <v name="RWIGS">     -1.00000000</v>
   <i type="int" name="NEDOS">   301</i>
   <i name="EMIN">     10.00000000</i>
   <i name="EMAX">    -10.00000000</i>
   <i name="EFERMI">      0.00000000</i>
  </separator>
  <separator name="writing" >
   <i type="int" name="NWRITE">     0</i>
   <i type="logical" name="LWAVE"> T  </i>
   <i type="logical" name="LCHARG"> T  </i>
   <i type="logical" name="LPARD"> F  </i>
   <i type="logical" name="LVTOT"> F  </i>
   <i type="logical" name="LVHAR"> F  </i>
   <i type="logical" name="LELF"> F  </i>
   <i type="logical" name="LOPTICS"> F  </i>
   <v name="STM">      0.00000000      0.00000000      0.00000000      0.00000000      0.00000000      0.00000000      0.00000000</v>
  </separator>
  <separator name="performance" >
   <i type="int" name="NPAR">     4</i>
   <i type="int" name="NSIM">     4</i>
   <i type="int" name="NBLK">    -1</i>
   <i type="logical" name="LPLANE"> T  </i>
   <i type="logical" name="LSCALAPACK"> T  </i>
   <i type="logical" name="LSCAAWARE"> F  </i>
   <i type="logical" name="LSCALU"> F  </i>
   <i type="logical" name="LASYNC"> F  </i>
   <i type="logical" name="LORBITALREAL"> F  </i>
  </separator>
  <separator name="miscellaneous" >
   <i type="int" name="IDIOT">     3</i>
   <i type="logical" name="LMUSIC"> F  </i>
   <v name="POMASS">     58.69000000</v>
   <v name="DARWINR">      0.00000000</v>
   <v name="DARWINV">      1.00000000</v>
   <i type="logical" name="LCORR"> T  </i>
  </separator>
  <i type="logical" name="GGA_COMPAT"> T  </i>
  <i type="logical" name="LBERRY"> F  </i>
  <i type="int" name="ICORELEVEL">     0</i>
  <i type="logical" name="LDAU"> F  </i>
  <i type="int" name="I_CONSTRAINED_M">     0</i>
  <separator name="electronic exchange-correlation" >
   <i type="string" name="GGA">--</i>
   <i type="int" name="VOSKOWN">     0</i>
   <i type="logical" name="LHFCALC"> F  </i>
   <i type="string" name="PRECFOCK"></i>
   <i type="logical" name="LSYMGRAD"> F  </i>
   <i type="logical" name="LHFONE"> F  </i>
   <i type="logical" name="LRHFCALC"> F  </i>
   <i type="logical" name="LTHOMAS"> F  </i>
   <i type="logical" name="LMODELHF"> F  </i>
   <i name="ENCUT4O">     -1.00000000</i>
   <i type="int" name="EXXOEP">     0</i>
   <i type="int" name="FOURORBIT">     0</i>
   <i name="AEXX">      0.00000000</i>
   <i name="HFALPHA">      0.00000000</i>
   <i name="MCALPHA">      0.00000000</i>
   <i name="ALDAX">      1.00000000</i>
   <i name="AGGAX">      1.00000000</i>
   <i name="ALDAC">      1.00000000</i>
   <i name="AGGAC">      1.00000000</i>
   <i type="int" name="NKREDX">     1</i>
   <i type="int" name="NKREDY">     1</i>
   <i type="int" name="NKREDZ">     1</i>
   <i type="logical" name="SHIFTRED"> F  </i>
   <i type="logical" name="ODDONLY"> F  </i>
   <i type="logical" name="EVENONLY"> F  </i>
   <i type="int" name="LMAXFOCK">     0</i>
   <i type="int" name="NMAXFOCKAE">     0</i>
   <i type="logical" name="LFOCKAEDFT"> F  </i>
   <i name="HFSCREEN">      0.00000000</i>
   <i name="HFSCREENC">      0.00000000</i>
   <i type="int" name="NBANDSGWLOW">     0</i>
  </separator>
  <separator name="vdW DFT" >
   <i type="logical" name="LUSE_VDW"> F  </i>
   <i name="Zab_VDW">     -0.84910000</i>
   <i name="PARAM1">      0.12340000</i>
   <i name="PARAM2">      1.00000000</i>
   <i name="PARAM3">      0.00000000</i>
  </separator>
  <separator name="model GW" >
   <i type="int" name="MODEL_GW">     0</i>
   <i name="MODEL_EPS0">      8.16195161</i>
   <i name="MODEL_ALPHA">      1.00000000</i>
  </separator>
  <separator name="linear response parameters" >
   <i type="logical" name="LEPSILON"> F  </i>
   <i type="logical" name="LRPA"> F  </i>
   <i type="logical" name="LNABLA"> F  </i>
   <i type="logical" name="LVEL"> F  </i>
   <i type="int" name="KINTER">     0</i>
   <i name="CSHIFT">      0.10000000</i>
   <i name="OMEGAMAX">     -1.00000000</i>
   <i name="DEG_THRESHOLD">      0.00200000</i>
  </separator>
  <separator name="orbital magnetization" >
   <i type="logical" name="NUCIND"> F  </i>
   <v name="MAGPOS">      0.00000000      0.00000000      0.00000000</v>
   <i type="logical" name="LNICSALL"> T  </i>
   <i type="logical" name="ORBITALMAG"> F  </i>
   <i type="logical" name="LMAGBLOCH"> F  </i>
   <i type="logical" name="LCHIMAG"> F  </i>
   <i type="logical" name="LGAUGE"> T  </i>
   <i type="int" name="MAGATOM">     0</i>
   <v name="MAGDIPOL">      0.00000000      0.00000000      0.00000000</v>
   <v name="AVECCONST">      0.00000000      0.00000000      0.00000000</v>
  </separator>
  <separator name="response functions" >
   <i type="logical" name="LADDER"> F  </i>
   <i type="logical" name="LFXC"> F  </i>
   <i type="logical" name="LHARTREE"> T  </i>
   <i type="int" name="IBSE">     0</i>
   <v type="int" name="KPOINT">    -1     0     0     0</v>
   <i type="logical" name="LTCTE"> F  </i>
   <i type="logical" name="LTETE"> F  </i>
   <i type="logical" name="LTRIPLET"> F  </i>
   <i type="logical" name="LFXCEPS"> F  </i>
   <i type="logical" name="LFXHEG"> F  </i>
   <i type="int" name="NATURALO">     0</i>
   <i type="logical" name="L2ORDER"> F  </i>
   <i type="logical" name="LUSEW"> F  </i>
   <i name="ENCUTGW">     -2.00000000</i>
   <i name="ENCUTGWSOFT">     -2.00000000</i>
   <i name="ENCUTLF">     -1.00000000</i>
   <i type="int" name="LMAXMP2">    -1</i>
   <i name="SCISSOR">      0.00000000</i>
   <i type="int" name="NOMEGA">     0</i>
   <i type="int" name="NOMEGAR">     0</i>
   <i type="int" name="NBANDSGW">    -1</i>
   <i type="int" name="NBANDSO">    -1</i>
   <i type="int" name="NBANDSV">    -1</i>
   <i type="int" name="NELM">     1</i>
   <i type="int" name="NELMHF">     1</i>
   <i type="int" name="DIM">     3</i>
   <i type="int" name="ANTIRES">     0</i>
   <i name="OMEGAMAX">    -30.00000000</i>
   <i name="OMEGAMIN">    -30.00000000</i>
   <i name="OMEGATL">   -200.00000000</i>
   <i type="int" name="OMEGAGRID">     0</i>
   <i name="CSHIFT">     -0.10000000</i>
   <i type="logical" name="SELFENERGY"> F  </i>
   <i type="logical" name="LSPECTRAL"> F  </i>
   <i type="logical" name="LSPECTRALGW"> F  </i>
   <i type="logical" name="LSINGLES"> F  </i>
   <i type="logical" name="LFERMIGW"> F  </i>
   <i type="logical" name="ODDONLYGW"> F  </i>
   <i type="logical" name="EVENONLYGW"> F  </i>
   <i type="int" name="NKREDLFX">     1</i>
   <i type="int" name="NKREDLFY">     1</i>
   <i type="int" name="NKREDLFZ">     1</i>
   <i type="int" name="MAXMEM">  1800</i>
   <i type="int" name="TELESCOPE">     0</i>
   <i type="int" name="TAUPAR">     1</i>
   <i type="int" name="OMEGAPAR">    -1</i>
   <i name="LAMBDA">      1.00000000</i>
  </separator>
  <separator name="External order field" >
   <i name="OFIELD_KAPPA">      0.00000000</i>
   <v name="OFIELD_K">      0.00000000      0.00000000      0.00000000</v>
   <i name="OFIELD_Q6_NEAR">      0.00000000</i>
   <i name="OFIELD_Q6_FAR">      0.00000000</i>
   <i name="OFIELD_A">      0.00000000</i>
  </separator>
 </parameters>
 <atominfo>
  <atoms>      64 </atoms>
  <types>       1 </types>
  <array name="atoms" >
   <dimension dim="1">ion</dimension>
   <field type="string">element</field>
   <field type="int">atomtype</field>
   <set>
    <rc><c>Ni</c><c>   1</c></rc>
    <rc><c>Ni</c><c>   1</c></rc>
    <rc><c>Ni</c><c>   1</c></rc>
    <rc><c>Ni</c><c>   1</c></rc>
    <rc><c>Ni</c><c>   1</c></rc>
    <rc><c>Ni</c><c>   1</c></rc>
    <rc><c>Ni</c><c>   1</c></rc>
    <rc><c>Ni</c><c>   1</c></rc>
    <rc><c>Ni</c><c>   1</c></rc>
    <rc><c>Ni</c><c>   1</c></rc>
    <rc><c>Ni</c><c>   1</c></rc>
    <rc><c>Ni</c><c>   1</c></rc>
    <rc><c>Ni</c><c>   1</c></rc>
    <rc><c>Ni</c><c>   1</c></rc>
    <rc><c>Ni</c><c>   1</c></rc>
    <rc><c>Ni</c><c>   1</c></rc>
    <rc><c>Ni</c><c>   1</c></rc>
    <rc><c>Ni</c><c>   1</c></rc>
    <rc><c>Ni</c><c>   1</c></rc>
    <rc><c>Ni</c><c>   1</c></rc>
    <rc><c>Ni</c><c>   1</c></rc>
    <rc><c>Ni</c><c>   1</c></rc>
    <rc><c>Ni</c><c>   1</c></rc>
    <rc><c>Ni</c><c>   1</c></rc>
    <rc><c>Ni</c><c>   1</c></rc>
    <rc><c>Ni</c><c>   1</c></rc>
    <rc><c>Ni</c><c>   1</c></rc>
    <rc><c>Ni</c><c>   1</c></rc>
    <rc><c>Ni</c><c>   1</c></rc>
    <rc><c>Ni</c><c>   1</c></rc>
    <rc><c>Ni</c><c>   1</c></rc>
    <rc><c>Ni</c><c>   1</c></rc>
    <rc><c>Ni</c><c>   1</c></rc>
    <rc><c>Ni</c><c>   1</c></rc>
    <rc><c>Ni</c><c>   1</c></rc>
    <rc><c>Ni</c><c>   1</c></rc>
    <rc><c>Ni</c><c>   1</c></rc>
    <rc><c>Ni</c><c>   1</c></rc>
    <rc><c>Ni</c><c>   1</c></rc>
    <rc><c>Ni</c><c>   1</c></rc>
    <rc><c>Ni</c><c>   1</c></rc>
    <rc><c>Ni</c><c>   1</c></rc>
    <rc><c>Ni</c><c>   1</c></rc>
    <rc><c>Ni</c><c>   1</c></rc>
    <rc><c>Ni</c><c>   1</c></rc>
    <rc><c>Ni</c><c>   1</c></rc>
    <rc><c>Ni</c><c>   1</c></rc>
    <rc><c>Ni</c><c>   1</c></rc>
    <rc><c>Ni</c><c>   1</c></rc>
    <rc><c>Ni</c><c>   1</c></rc>
    <rc><c>Ni</c><c>   1</c></rc>
    <rc><c>Ni</c><c>   1</c></rc>
    <rc><c>Ni</c><c>   1</c></rc>
    <rc><c>Ni</c><c>   1</c></rc>
    <rc><c>Ni</c><c>   1</c></rc>
    <rc><c>Ni</c><c>   1</c></rc>
    <rc><c>Ni</c><c>   1</c></rc>
    <rc><c>Ni</c><c>   1</c></rc>
    <rc><c>Ni</c><c>   1</c></rc>
    <rc><c>Ni</c><c>   1</c></rc>
    <rc><c>Ni</c><c>   1</c></rc>
    <rc><c>Ni</c><c>   1</c></rc>
    <rc><c>Ni</c><c>   1</c></rc>
    <rc><c>Ni</c><c>   1</c></rc>
   </set>
  </array>
  <array name="atomtypes" >
   <dimension dim="1">type</dimension>
   <field type="int">atomspertype</field>
   <field type="string">element</field>
   <field>mass</field>
   <field>valence</field>
   <field type="string">pseudopotential</field>
   <set>
    <rc><c>  64</c><c>Ni</c><c>     58.69000000</c><c>     16.00000000</c><c> PAW_PBE Ni_pv 06Sep2000                </c></rc>
   </set>
  </array>
 </atominfo>
 <structure name="initialpos" >
  <crystal>
   <varray name="basis" >
    <v>       0.00000000       7.57875000       7.57875000 </v>
    <v>       7.57875000       0.00000000       7.57875000 </v>
    <v>       7.57875000       7.57875000       0.00000000 </v>
   </varray>
   <i name="volume">    870.60817206 </i>
   <varray name="rec_basis" >
    <v>      -0.06597394       0.06597394       0.06597394 </v>
    <v>       0.06597394      -0.06597394       0.06597394 </v>
    <v>       0.06597394       0.06597394      -0.06597394 </v>
   </varray>
  </crystal>
  <varray name="positions" >
   <v>       0.00000000       0.00000000       0.00000000 </v>
   <v>       0.00000000       0.00000000       0.25000000 </v>
   <v>       0.00000000       0.00000000       0.50000000 </v>
   <v>       0.00000000       0.00000000       0.75000000 </v>
   <v>       0.00000000       0.25000000       0.00000000 </v>
   <v>       0.00000000       0.25000000       0.25000000 </v>
   <v>       0.00000000       0.25000000       0.50000000 </v>
   <v>       0.00000000       0.25000000       0.75000000 </v>
   <v>       0.00000000       0.50000000       0.00000000 </v>
   <v>       0.00000000       0.50000000       0.25000000 </v>
   <v>       0.00000000       0.50000000       0.50000000 </v>
   <v>       0.00000000       0.50000000       0.75000000 </v>
   <v>       0.00000000       0.75000000       0.00000000 </v>
   <v>       0.00000000       0.75000000       0.25000000 </v>
   <v>       0.00000000       0.75000000       0.50000000 </v>
   <v>       0.00000000       0.75000000       0.75000000 </v>
   <v>       0.25000000       0.00000000       0.00000000 </v>
   <v>       0.25000000       0.00000000       0.25000000 </v>
   <v>       0.25000000       0.00000000       0.50000000 </v>
   <v>       0.25000000       0.00000000       0.75000000 </v>
   <v>       0.25000000       0.25000000       0.00000000 </v>
   <v>       0.25000000       0.25000000       0.25000000 </v>
   <v>       0.25000000       0.25000000       0.50000000 </v>
   <v>       0.25000000       0.25000000       0.75000000 </v>
   <v>       0.25000000       0.50000000       0.00000000 </v>
   <v>       0.25000000       0.50000000       0.25000000 </v>
   <v>       0.25000000       0.50000000       0.50000000 </v>
   <v>       0.25000000       0.50000000       0.75000000 </v>
   <v>       0.25000000       0.75000000       0.00000000 </v>
   <v>       0.25000000       0.75000000       0.25000000 </v>
   <v>       0.25000000       0.75000000       0.50000000 </v>
   <v>       0.25000000       0.75000000       0.75000000 </v>
   <v>       0.50000000       0.00000000       0.00000000 </v>
   <v>       0.50000000       0.00000000       0.25000000 </v>
   <v>       0.50000000       0.00000000       0.50000000 </v>
   <v>       0.50000000       0.00000000       0.75000000 </v>
   <v>       0.50000000       0.25000000       0.00000000 </v>
   <v>       0.50000000       0.25000000       0.25000000 </v>
   <v>       0.50000000       0.25000000       0.50000000 </v>
   <v>       0.50000000       0.25000000       0.75000000 </v>
   <v>       0.50000000       0.50000000       0.00000000 </v>
   <v>       0.50000000       0.50000000       0.25000000 </v>
   <v>       0.50000000       0.50000000       0.50000000 </v>
   <v>       0.50000000       0.50000000       0.75000000 </v>
   <v>       0.50000000       0.75000000       0.00000000 </v>
   <v>       0.50000000       0.75000000       0.25000000 </v>
   <v>       0.50000000       0.75000000       0.50000000 </v>
   <v>       0.50000000       0.75000000       0.75000000 </v>
   <v>       0.75000000       0.00000000       0.00000000 </v>
   <v>       0.75000000       0.00000000       0.25000000 </v>
   <v>       0.75000000       0.00000000       0.50000000 </v>
   <v>       0.75000000       0.00000000       0.75000000 </v>
   <v>       0.75000000       0.25000000       0.00000000 </v>
   <v>       0.75000000       0.25000000       0.25000000 </v>
   <v>       0.75000000       0.25000000       0.50000000 </v>
   <v>       0.75000000       0.25000000       0.75000000 </v>
   <v>       0.75000000       0.50000000       0.00000000 </v>
   <v>       0.75000000       0.50000000       0.25000000 </v>
   <v>       0.75000000       0.50000000       0.50000000 </v>
   <v>       0.75000000       0.50000000       0.75000000 </v>
   <v>       0.75000000       0.75000000       0.00000000 </v>
   <v>       0.75000000       0.75000000       0.25000000 </v>
   <v>       0.75000000       0.75000000       0.50000000 </v>
   <v>       0.75000000       0.75000000       0.75000000 </v>
  </varray>
 </structure>
 <calculation>
  <scstep>
   <time name="dav">  400.17  799.39</time>
   <time name="total">  401.10  801.30</time>
   <energy>
    <i name="alphaZ">   7925.72117195 </i>
    <i name="ewald">-142726.55438451 </i>
    <i name="hartreedc"> -68446.41765041 </i>
    <i name="XCdc">   5673.78680675 </i>
    <i name="pawpsdc"> 172361.15642774 </i>
    <i name="pawaedc">-181272.45834873 </i>
    <i name="eentropy">     -0.00607096 </i>
    <i name="bandstr">  -4370.84685061 </i>
    <i name="atom"> 224013.29143063 </i>
    <i name="e_fr_energy">  13157.67253185 </i>
    <i name="e_wo_entrp">  13157.67860282 </i>
    <i name="e_0_energy">  13157.67455551 </i>
   </energy>
  </scstep>
  <scstep>
   <time name="dav">  349.02  697.22</time>
   <time name="total">  349.03  697.26</time>
   <energy>
    <i name="e_fr_energy">    648.53913693 </i>
    <i name="e_wo_entrp">    648.53559548 </i>
    <i name="e_0_energy">    648.53795645 </i>
   </energy>
  </scstep>
  <scstep>
   <time name="dav">  360.86  720.86</time>
   <time name="total">  360.87  720.89</time>
   <energy>
    <i name="e_fr_energy">   -357.85550583 </i>
    <i name="e_wo_entrp">   -357.91827194 </i>
    <i name="e_0_energy">   -357.87642787 </i>
   </energy>
  </scstep>
  <scstep>
   <time name="dav">  369.02  737.19</time>
   <time name="total">  369.03  737.21</time>
   <energy>
    <i name="e_fr_energy">   -410.84275894 </i>
    <i name="e_wo_entrp">   -410.94889942 </i>
    <i name="e_0_energy">   -410.87813910 </i>
   </energy>
  </scstep>
  <scstep>
   <time name="dav">  364.78  728.70</time>
   <time name="total">  383.40  765.89</time>
   <energy>
    <i name="e_fr_energy">   -411.65794208 </i>
    <i name="e_wo_entrp">   -411.76433540 </i>
    <i name="e_0_energy">   -411.69340652 </i>
   </energy>
  </scstep>
  <scstep>
   <time name="dav">  365.63  730.44</time>
   <time name="total">  384.21  767.56</time>
   <energy>
    <i name="e_fr_energy">   -398.13055849 </i>
    <i name="e_wo_entrp">   -397.65032287 </i>
    <i name="e_0_energy">   -397.97047995 </i>
   </energy>
  </scstep>
  <scstep>
   <time name="dav">  364.30  727.78</time>
   <time name="total">  383.11  765.32</time>
   <energy>
    <i name="e_fr_energy">   -351.57905462 </i>
    <i name="e_wo_entrp">   -351.27383233 </i>
    <i name="e_0_energy">   -351.47731385 </i>
   </energy>
  </scstep>
  <scstep>
   <time name="dav">  363.49  726.16</time>
   <time name="total">  382.40  763.95</time>
   <energy>
    <i name="e_fr_energy">   -351.82309697 </i>
    <i name="e_wo_entrp">   -351.52289300 </i>
    <i name="e_0_energy">   -351.72302898 </i>
   </energy>
  </scstep>
  <scstep>
   <time name="dav">  369.84  738.80</time>
   <time name="total">  388.66  776.38</time>
   <energy>
    <i name="e_fr_energy">   -351.80755806 </i>
    <i name="e_wo_entrp">   -351.49384422 </i>
    <i name="e_0_energy">   -351.70298678 </i>
   </energy>
  </scstep>
  <scstep>
   <time name="dav">  385.73  770.49</time>
   <time name="total">  404.58  808.16</time>
   <energy>
    <i name="e_fr_energy">   -351.81258525 </i>
    <i name="e_wo_entrp">   -351.49988737 </i>
    <i name="e_0_energy">   -351.70835262 </i>
   </energy>
  </scstep>
  <scstep>
   <time name="dav">  363.65  726.42</time>
   <time name="total">  381.86  762.85</time>
   <energy>
    <i name="e_fr_energy">   -351.81367537 </i>
    <i name="e_wo_entrp">   -351.50334548 </i>
    <i name="e_0_energy">   -351.71023208 </i>
   </energy>
  </scstep>
  <scstep>
   <time name="dav">  382.07  763.21</time>
   <time name="total">  400.44  799.91</time>
   <energy>
    <i name="e_fr_energy">   -351.81398254 </i>
    <i name="e_wo_entrp">   -351.50333461 </i>
    <i name="e_0_energy">   -351.71043323 </i>
   </energy>
  </scstep>
  <scstep>
   <time name="dav">  369.91  738.90</time>
   <time name="total">  388.12  775.29</time>
   <energy>
    <i name="e_fr_energy">   -351.81397042 </i>
    <i name="e_wo_entrp">   -351.50294799 </i>
    <i name="e_0_energy">   -351.71029628 </i>
   </energy>
  </scstep>
  <scstep>
   <time name="dav">  274.36  548.00</time>
   <time name="total">  292.58  584.44</time>
   <energy>
    <i name="e_fr_energy">   -351.81396653 </i>
    <i name="e_wo_entrp">   -351.50285003 </i>
    <i name="e_0_energy">   -351.71026103 </i>
   </energy>
  </scstep>
  <scstep>
   <time name="dav">  270.59  540.47</time>
   <time name="total">  288.81  576.88</time>
   <energy>
    <i name="e_fr_energy">   -351.81395689 </i>
    <i name="e_wo_entrp">   -351.50286141 </i>
    <i name="e_0_energy">   -351.71025839 </i>
   </energy>
  </scstep>
  <scstep>
   <time name="dav">  222.01  443.51</time>
   <time name="total">  240.23  479.92</time>
   <energy>
    <i name="e_fr_energy">   -351.81395538 </i>
    <i name="e_wo_entrp">   -351.50288285 </i>
    <i name="e_0_energy">   -351.71026454 </i>
   </energy>
  </scstep>
  <scstep>
   <time name="dav">  222.05  443.57</time>
   <time name="total">  222.97  445.42</time>
   <energy>
    <i name="alphaZ">   7925.72117195 </i>
    <i name="ewald">-142726.55438451 </i>
    <i name="hartreedc"> -66222.58669357 </i>
    <i name="XCdc">   5592.95867264 </i>
    <i name="pawpsdc"> 170170.99114477 </i>
    <i name="pawaedc">-179181.91674827 </i>
    <i name="eentropy">     -0.31106515 </i>
    <i name="bandstr"> -19923.40748379 </i>
    <i name="atom"> 224013.29143063 </i>
    <i name="e_fr_energy">   -351.81395531 </i>
    <i name="e_wo_entrp">   -351.50289016 </i>
    <i name="e_0_energy">   -351.71026692 </i>
   </energy>
  </scstep>
  <structure>
   <crystal>
    <varray name="basis" >
     <v>       0.00000000       7.57875000       7.57875000 </v>
     <v>       7.57875000       0.00000000       7.57875000 </v>
     <v>       7.57875000       7.57875000       0.00000000 </v>
    </varray>
    <i name="volume">    870.60817206 </i>
    <varray name="rec_basis" >
     <v>      -0.06597394       0.06597394       0.06597394 </v>
     <v>       0.06597394      -0.06597394       0.06597394 </v>
     <v>       0.06597394       0.06597394      -0.06597394 </v>
    </varray>
   </crystal>
   <varray name="positions" >
    <v>       0.00000000       0.00000000       0.00000000 </v>
    <v>       0.00000000       0.00000000       0.25000000 </v>
    <v>       0.00000000       0.00000000       0.50000000 </v>
    <v>       0.00000000       0.00000000       0.75000000 </v>
    <v>       0.00000000       0.25000000       0.00000000 </v>
    <v>       0.00000000       0.25000000       0.25000000 </v>
    <v>       0.00000000       0.25000000       0.50000000 </v>
    <v>       0.00000000       0.25000000       0.75000000 </v>
    <v>       0.00000000       0.50000000       0.00000000 </v>
    <v>       0.00000000       0.50000000       0.25000000 </v>
    <v>       0.00000000       0.50000000       0.50000000 </v>
    <v>       0.00000000       0.50000000       0.75000000 </v>
    <v>       0.00000000       0.75000000       0.00000000 </v>
    <v>       0.00000000       0.75000000       0.25000000 </v>
    <v>       0.00000000       0.75000000       0.50000000 </v>
    <v>       0.00000000       0.75000000       0.75000000 </v>
    <v>       0.25000000       0.00000000       0.00000000 </v>
    <v>       0.25000000       0.00000000       0.25000000 </v>
    <v>       0.25000000       0.00000000       0.50000000 </v>
    <v>       0.25000000       0.00000000       0.75000000 </v>
    <v>       0.25000000       0.25000000       0.00000000 </v>
    <v>       0.25000000       0.25000000       0.25000000 </v>
    <v>       0.25000000       0.25000000       0.50000000 </v>
    <v>       0.25000000       0.25000000       0.75000000 </v>
    <v>       0.25000000       0.50000000       0.00000000 </v>
    <v>       0.25000000       0.50000000       0.25000000 </v>
    <v>       0.25000000       0.50000000       0.50000000 </v>
    <v>       0.25000000       0.50000000       0.75000000 </v>
    <v>       0.25000000       0.75000000       0.00000000 </v>
    <v>       0.25000000       0.75000000       0.25000000 </v>
    <v>       0.25000000       0.75000000       0.50000000 </v>
    <v>       0.25000000       0.75000000       0.75000000 </v>
    <v>       0.50000000       0.00000000       0.00000000 </v>
    <v>       0.50000000       0.00000000       0.25000000 </v>
    <v>       0.50000000       0.00000000       0.50000000 </v>
    <v>       0.50000000       0.00000000       0.75000000 </v>
    <v>       0.50000000       0.25000000       0.00000000 </v>
    <v>       0.50000000       0.25000000       0.25000000 </v>
    <v>       0.50000000       0.25000000       0.50000000 </v>
    <v>       0.50000000       0.25000000       0.75000000 </v>
    <v>       0.50000000       0.50000000       0.00000000 </v>
    <v>       0.50000000       0.50000000       0.25000000 </v>
    <v>       0.50000000       0.50000000       0.50000000 </v>
    <v>       0.50000000       0.50000000       0.75000000 </v>
    <v>       0.50000000       0.75000000       0.00000000 </v>
    <v>       0.50000000       0.75000000       0.25000000 </v>
    <v>       0.50000000       0.75000000       0.50000000 </v>
    <v>       0.50000000       0.75000000       0.75000000 </v>
    <v>       0.75000000       0.00000000       0.00000000 </v>
    <v>       0.75000000       0.00000000       0.25000000 </v>
    <v>       0.75000000       0.00000000       0.50000000 </v>
    <v>       0.75000000       0.00000000       0.75000000 </v>
    <v>       0.75000000       0.25000000       0.00000000 </v>
    <v>       0.75000000       0.25000000       0.25000000 </v>
    <v>       0.75000000       0.25000000       0.50000000 </v>
    <v>       0.75000000       0.25000000       0.75000000 </v>
    <v>       0.75000000       0.50000000       0.00000000 </v>
    <v>       0.75000000       0.50000000       0.25000000 </v>
    <v>       0.75000000       0.50000000       0.50000000 </v>
    <v>       0.75000000       0.50000000       0.75000000 </v>
    <v>       0.75000000       0.75000000       0.00000000 </v>
    <v>       0.75000000       0.75000000       0.25000000 </v>
    <v>       0.75000000       0.75000000       0.50000000 </v>
    <v>       0.75000000       0.75000000       0.75000000 </v>
   </varray>
  </structure>
  <varray name="forces" >
   <v>      -0.00000000       0.00000000       0.00000000 </v>
   <v>      -0.00000000       0.00000000      -0.00000000 </v>
   <v>       0.00000000       0.00000000      -0.00000000 </v>
   <v>      -0.00000000       0.00000000      -0.00000000 </v>
   <v>       0.00000000       0.00000000       0.00000000 </v>
   <v>       0.00000000      -0.00000000       0.00000000 </v>
   <v>      -0.00000000       0.00000000      -0.00000000 </v>
   <v>      -0.00000000       0.00000000       0.00000000 </v>
   <v>       0.00000000      -0.00000000      -0.00000000 </v>
   <v>      -0.00000000      -0.00000000       0.00000000 </v>
   <v>      -0.00000000       0.00000000       0.00000000 </v>
   <v>       0.00000000      -0.00000000       0.00000000 </v>
   <v>       0.00000000      -0.00000000       0.00000000 </v>
   <v>      -0.00000000       0.00000000       0.00000000 </v>
   <v>       0.00000000       0.00000000       0.00000000 </v>
   <v>       0.00000000      -0.00000000      -0.00000000 </v>
   <v>       0.00000000       0.00000000       0.00000000 </v>
   <v>      -0.00000000      -0.00000000      -0.00000000 </v>
   <v>       0.00000000      -0.00000000      -0.00000000 </v>
   <v>       0.00000000      -0.00000000      -0.00000000 </v>
   <v>       0.00000000      -0.00000000       0.00000000 </v>
   <v>       0.00000000      -0.00000000       0.00000000 </v>
   <v>      -0.00000000      -0.00000000      -0.00000000 </v>
   <v>      -0.00000000      -0.00000000      -0.00000000 </v>
   <v>       0.00000000      -0.00000000       0.00000000 </v>
   <v>      -0.00000000       0.00000000       0.00000000 </v>
   <v>      -0.00000000       0.00000000       0.00000000 </v>
   <v>      -0.00000000      -0.00000000      -0.00000000 </v>
   <v>       0.00000000       0.00000000       0.00000000 </v>
   <v>      -0.00000000      -0.00000000       0.00000000 </v>
   <v>       0.00000000      -0.00000000       0.00000000 </v>
   <v>       0.00000000      -0.00000000       0.00000000 </v>
   <v>      -0.00000000       0.00000000       0.00000000 </v>
   <v>      -0.00000000       0.00000000      -0.00000000 </v>
   <v>       0.00000000      -0.00000000      -0.00000000 </v>
   <v>      -0.00000000      -0.00000000      -0.00000000 </v>
   <v>       0.00000000       0.00000000       0.00000000 </v>
   <v>       0.00000000      -0.00000000       0.00000000 </v>
   <v>      -0.00000000       0.00000000      -0.00000000 </v>
   <v>      -0.00000000      -0.00000000       0.00000000 </v>
   <v>       0.00000000       0.00000000      -0.00000000 </v>
   <v>      -0.00000000      -0.00000000       0.00000000 </v>
   <v>      -0.00000000       0.00000000       0.00000000 </v>
   <v>      -0.00000000       0.00000000      -0.00000000 </v>
   <v>       0.00000000       0.00000000       0.00000000 </v>
   <v>      -0.00000000       0.00000000       0.00000000 </v>
   <v>       0.00000000      -0.00000000      -0.00000000 </v>
   <v>       0.00000000       0.00000000      -0.00000000 </v>
   <v>      -0.00000000       0.00000000      -0.00000000 </v>
   <v>      -0.00000000      -0.00000000      -0.00000000 </v>
   <v>       0.00000000      -0.00000000      -0.00000000 </v>
   <v>      -0.00000000       0.00000000      -0.00000000 </v>
   <v>      -0.00000000       0.00000000      -0.00000000 </v>
   <v>      -0.00000000      -0.00000000      -0.00000000 </v>
   <v>       0.00000000       0.00000000      -0.00000000 </v>
   <v>       0.00000000      -0.00000000       0.00000000 </v>
   <v>       0.00000000       0.00000000      -0.00000000 </v>
   <v>       0.00000000      -0.00000000       0.00000000 </v>
   <v>      -0.00000000       0.00000000      -0.00000000 </v>
   <v>      -0.00000000       0.00000000      -0.00000000 </v>
   <v>      -0.00000000       0.00000000       0.00000000 </v>
   <v>      -0.00000000      -0.00000000       0.00000000 </v>
   <v>       0.00000000      -0.00000000       0.00000000 </v>
   <v>       0.00000000      -0.00000000      -0.00000000 </v>
  </varray>
  <varray name="stress" >
   <v>    -373.23547043       0.00000000       0.00000000 </v>
   <v>       0.00000000    -373.23547043       0.00000000 </v>
   <v>       0.00000000       0.00000000    -373.23547043 </v>
  </varray>
  <energy>
   <i name="e_fr_energy">   -351.81395531 </i>
   <i name="e_wo_entrp">   -351.71026692 </i>
   <i name="e_0_energy">     -0.31106515 </i>
  </energy>
  <kpoints>
   <generation param="Gamma">
    <v type="int" name="divisions">       5        5        5 </v>
    <v name="usershift">      0.00000000       0.00000000       0.00000000 </v>
    <v name="genvec1">      0.20000000       0.00000000       0.00000000 </v>
    <v name="genvec2">      0.00000000       0.20000000       0.00000000 </v>
    <v name="genvec3">      0.00000000       0.00000000       0.20000000 </v>
    <v name="shift">      0.00000000       0.00000000       0.00000000 </v>
   </generation>
   <varray name="kpointlist" >
    <v>       0.00000000       0.00000000       0.00000000 </v>
    <v>       0.20000000       0.00000000       0.00000000 </v>
    <v>       0.40000000       0.00000000       0.00000000 </v>
    <v>       0.20000000       0.20000000       0.00000000 </v>
    <v>       0.40000000       0.20000000       0.00000000 </v>
    <v>      -0.40000000       0.20000000       0.00000000 </v>
    <v>      -0.20000000       0.20000000       0.00000000 </v>
    <v>       0.40000000       0.40000000       0.00000000 </v>
    <v>      -0.40000000       0.40000000       0.00000000 </v>
    <v>       0.00000000       0.20000000       0.20000000 </v>
    <v>       0.40000000       0.20000000       0.20000000 </v>
    <v>      -0.40000000       0.20000000       0.20000000 </v>
    <v>      -0.20000000       0.20000000       0.20000000 </v>
    <v>      -0.40000000       0.40000000       0.20000000 </v>
    <v>      -0.20000000       0.40000000       0.20000000 </v>
    <v>       0.40000000      -0.40000000       0.20000000 </v>
    <v>       0.00000000       0.40000000       0.40000000 </v>
    <v>      -0.20000000       0.40000000       0.40000000 </v>
   </varray>
   <varray name="weights" >
    <v>       0.00800000 </v>
    <v>       0.06400000 </v>
    <v>       0.06400000 </v>
    <v>       0.03200000 </v>
    <v>       0.12800000 </v>
    <v>       0.12800000 </v>
    <v>       0.06400000 </v>
    <v>       0.03200000 </v>
    <v>       0.06400000 </v>
    <v>       0.01600000 </v>
    <v>       0.03200000 </v>
    <v>       0.06400000 </v>
    <v>       0.06400000 </v>
    <v>       0.06400000 </v>
    <v>       0.06400000 </v>
    <v>       0.06400000 </v>
    <v>       0.01600000 </v>
    <v>       0.03200000 </v>
   </varray>
  </kpoints>
  <time name="totalsc"> 6510.4213040.31</time>
 </calculation>
 <calculation>
  <scstep>
   <time name="dav">  792.27 1582.82</time>
   <time name="total">  823.95 1646.12</time>
   <energy>
    <i name="alphaZ">   7925.72117195 </i>
    <i name="ewald">-142726.42868067 </i>
    <i name="hartreedc"> -66222.71985305 </i>
    <i name="XCdc">   5592.95966418 </i>
    <i name="pawpsdc"> 170170.94692847 </i>
    <i name="pawaedc">-179181.87253302 </i>
    <i name="eentropy">     -0.31103611 </i>
    <i name="bandstr"> -19923.32556948 </i>
    <i name="atom"> 224013.29143063 </i>
    <i name="e_fr_energy">   -351.73847711 </i>
    <i name="e_wo_entrp">   -351.42744100 </i>
    <i name="e_0_energy">   -351.63479840 </i>
   </energy>
  </scstep>
  <scstep>
   <time name="dav">  642.27 1282.95</time>
   <time name="total">  674.00 1346.35</time>
   <energy>
    <i name="e_fr_energy">   -351.81464873 </i>
    <i name="e_wo_entrp">   -351.50377555 </i>
    <i name="e_0_energy">   -351.71102434 </i>
   </energy>
  </scstep>
  <scstep>
   <time name="dav">  746.87 1491.93</time>
   <time name="total">  778.68 1555.48</time>
   <energy>
    <i name="e_fr_energy">   -351.81590383 </i>
    <i name="e_wo_entrp">   -351.50495216 </i>
    <i name="e_0_energy">   -351.71225327 </i>
   </energy>
  </scstep>
  <scstep>
   <time name="dav">  728.22 1454.71</time>
   <time name="total">  759.95 1518.09</time>
   <energy>
    <i name="e_fr_energy">   -351.81598393 </i>
    <i name="e_wo_entrp">   -351.50507566 </i>
    <i name="e_0_energy">   -351.71234784 </i>
   </energy>
  </scstep>
  <scstep>
   <time name="dav">  673.35 1345.27</time>
   <time name="total">  704.92 1408.36</time>
   <energy>
    <i name="e_fr_energy">   -351.81378212 </i>
    <i name="e_wo_entrp">   -351.50272535 </i>
    <i name="e_0_energy">   -351.71009653 </i>
   </energy>
  </scstep>
  <scstep>
   <time name="dav">  788.17 1574.88</time>
   <time name="total">  819.57 1637.60</time>
   <energy>
    <i name="e_fr_energy">   -351.81378083 </i>
    <i name="e_wo_entrp">   -351.50272290 </i>
    <i name="e_0_energy">   -351.71009485 </i>
   </energy>
  </scstep>
  <scstep>
   <time name="dav">  757.74 1514.02</time>
   <time name="total">  789.83 1578.10</time>
   <energy>
    <i name="e_fr_energy">   -351.81374932 </i>
    <i name="e_wo_entrp">   -351.50269279 </i>
    <i name="e_0_energy">   -351.71006381 </i>
   </energy>
  </scstep>
  <scstep>
   <time name="dav">  818.22 1634.65</time>
   <time name="total">  850.38 1698.86</time>
   <energy>
    <i name="e_fr_energy">   -351.81372983 </i>
    <i name="e_wo_entrp">   -351.50267366 </i>
    <i name="e_0_energy">   -351.71004444 </i>
   </energy>
  </scstep>
  <scstep>
   <time name="dav">  825.79 1649.78</time>
   <time name="total">  857.90 1713.90</time>
   <energy>
    <i name="e_fr_energy">   -351.81377356 </i>
    <i name="e_wo_entrp">   -351.50272390 </i>
    <i name="e_0_energy">   -351.71009034 </i>
   </energy>
  </scstep>
  <scstep>
   <time name="dav">  955.87 1909.56</time>
   <time name="total">  989.26 1976.28</time>
   <energy>
    <i name="e_fr_energy">   -351.81364966 </i>
    <i name="e_wo_entrp">   -351.50260232 </i>
    <i name="e_0_energy">   -351.70996721 </i>
   </energy>
  </scstep>
  <scstep>
   <time name="dav">  987.00 1971.81</time>
   <time name="total"> 1020.10 2037.89</time>
   <energy>
    <i name="e_fr_energy">   -351.81365619 </i>
    <i name="e_wo_entrp">   -351.50260904 </i>
    <i name="e_0_energy">   -351.70997380 </i>
   </energy>
  </scstep>
  <scstep>
   <time name="dav">  850.23 1698.43</time>
   <time name="total">  883.03 1763.98</time>
   <energy>
    <i name="e_fr_energy">   -351.81365267 </i>
    <i name="e_wo_entrp">   -351.50260598 </i>
    <i name="e_0_energy">   -351.70997044 </i>
   </energy>
  </scstep>
  <scstep>
   <time name="dav">  770.75 1515.45</time>
   <time name="total">  803.74 1581.40</time>
   <energy>
    <i name="e_fr_energy">   -351.81364924 </i>
    <i name="e_wo_entrp">   -351.50260199 </i>
    <i name="e_0_energy">   -351.70996682 </i>
   </energy>
  </scstep>
  <scstep>
   <time name="dav">  496.85  992.64</time>
   <time name="total">  497.85  994.64</time>
   <energy>
    <i name="alphaZ">   7925.72117195 </i>
    <i name="ewald">-142726.42868067 </i>
    <i name="hartreedc"> -66222.70352571 </i>
    <i name="XCdc">   5592.95888627 </i>
    <i name="pawpsdc"> 170170.86119439 </i>
    <i name="pawaedc">-179181.78787924 </i>
    <i name="eentropy">     -0.31104777 </i>
    <i name="bandstr"> -19923.41520003 </i>
    <i name="atom"> 224013.29143063 </i>
    <i name="e_fr_energy">   -351.81365017 </i>
    <i name="e_wo_entrp">   -351.50260240 </i>
    <i name="e_0_energy">   -351.70996758 </i>
   </energy>
  </scstep>
  <structure>
   <crystal>
    <varray name="basis" >
     <v>       0.00000000       7.57875000       7.57875000 </v>
     <v>       7.57875000       0.00000000       7.57875000 </v>
     <v>       7.57875000       7.57875000       0.00000000 </v>
    </varray>
    <i name="volume">    870.60817206 </i>
    <varray name="rec_basis" >
     <v>      -0.06597394       0.06597394       0.06597394 </v>
     <v>       0.06597394      -0.06597394       0.06597394 </v>
     <v>       0.06597394       0.06597394      -0.06597394 </v>
    </varray>
   </crystal>
   <varray name="positions" >
    <v>      -0.00098961       0.00098961       0.00098961 </v>
    <v>       0.00000000       0.00000000       0.25000000 </v>
    <v>       0.00000000       0.00000000       0.50000000 </v>
    <v>       0.00000000       0.00000000       0.75000000 </v>
    <v>       0.00000000       0.25000000       0.00000000 </v>
    <v>       0.00000000       0.25000000       0.25000000 </v>
    <v>       0.00000000       0.25000000       0.50000000 </v>
    <v>       0.00000000       0.25000000       0.75000000 </v>
    <v>       0.00000000       0.50000000       0.00000000 </v>
    <v>       0.00000000       0.50000000       0.25000000 </v>
    <v>       0.00000000       0.50000000       0.50000000 </v>
    <v>       0.00000000       0.50000000       0.75000000 </v>
    <v>       0.00000000       0.75000000       0.00000000 </v>
    <v>       0.00000000       0.75000000       0.25000000 </v>
    <v>       0.00000000       0.75000000       0.50000000 </v>
    <v>       0.00000000       0.75000000       0.75000000 </v>
    <v>       0.25000000       0.00000000       0.00000000 </v>
    <v>       0.25000000       0.00000000       0.25000000 </v>
    <v>       0.25000000       0.00000000       0.50000000 </v>
    <v>       0.25000000       0.00000000       0.75000000 </v>
    <v>       0.25000000       0.25000000       0.00000000 </v>
    <v>       0.25000000       0.25000000       0.25000000 </v>
    <v>       0.25000000       0.25000000       0.50000000 </v>
    <v>       0.25000000       0.25000000       0.75000000 </v>
    <v>       0.25000000       0.50000000       0.00000000 </v>
    <v>       0.25000000       0.50000000       0.25000000 </v>
    <v>       0.25000000       0.50000000       0.50000000 </v>
    <v>       0.25000000       0.50000000       0.75000000 </v>
    <v>       0.25000000       0.75000000       0.00000000 </v>
    <v>       0.25000000       0.75000000       0.25000000 </v>
    <v>       0.25000000       0.75000000       0.50000000 </v>
    <v>       0.25000000       0.75000000       0.75000000 </v>
    <v>       0.50000000       0.00000000       0.00000000 </v>
    <v>       0.50000000       0.00000000       0.25000000 </v>
    <v>       0.50000000       0.00000000       0.50000000 </v>
    <v>       0.50000000       0.00000000       0.75000000 </v>
    <v>       0.50000000       0.25000000       0.00000000 </v>
    <v>       0.50000000       0.25000000       0.25000000 </v>
    <v>       0.50000000       0.25000000       0.50000000 </v>
    <v>       0.50000000       0.25000000       0.75000000 </v>
    <v>       0.50000000       0.50000000       0.00000000 </v>
    <v>       0.50000000       0.50000000       0.25000000 </v>
    <v>       0.50000000       0.50000000       0.50000000 </v>
    <v>       0.50000000       0.50000000       0.75000000 </v>
    <v>       0.50000000       0.75000000       0.00000000 </v>
    <v>       0.50000000       0.75000000       0.25000000 </v>
    <v>       0.50000000       0.75000000       0.50000000 </v>
    <v>       0.50000000       0.75000000       0.75000000 </v>
    <v>       0.75000000       0.00000000       0.00000000 </v>
    <v>       0.75000000       0.00000000       0.25000000 </v>
    <v>       0.75000000       0.00000000       0.50000000 </v>
    <v>       0.75000000       0.00000000       0.75000000 </v>
    <v>       0.75000000       0.25000000       0.00000000 </v>
    <v>       0.75000000       0.25000000       0.25000000 </v>
    <v>       0.75000000       0.25000000       0.50000000 </v>
    <v>       0.75000000       0.25000000       0.75000000 </v>
    <v>       0.75000000       0.50000000       0.00000000 </v>
    <v>       0.75000000       0.50000000       0.25000000 </v>
    <v>       0.75000000       0.50000000       0.50000000 </v>
    <v>       0.75000000       0.50000000       0.75000000 </v>
    <v>       0.75000000       0.75000000       0.00000000 </v>
    <v>       0.75000000       0.75000000       0.25000000 </v>
    <v>       0.75000000       0.75000000       0.50000000 </v>
    <v>       0.75000000       0.75000000       0.75000000 </v>
   </varray>
  </structure>
  <varray name="forces" >
   <v>      -0.04151205       0.00000000       0.00000000 </v>
   <v>       0.00428139       0.00399380       0.00000000 </v>
   <v>      -0.00000489      -0.00008630       0.00000000 </v>
   <v>       0.00382083       0.00350849       0.00000000 </v>
   <v>       0.00428139       0.00000000       0.00399380 </v>
   <v>       0.00080491       0.00048003       0.00048003 </v>
   <v>       0.00011998       0.00042899      -0.00020126 </v>
   <v>       0.00096870      -0.00002078       0.00002078 </v>
   <v>      -0.00000489       0.00000000      -0.00008630 </v>
   <v>       0.00011998      -0.00020126       0.00042899 </v>
   <v>      -0.00004994       0.00000000       0.00000000 </v>
   <v>       0.00017357      -0.00023982       0.00049455 </v>
   <v>       0.00382083       0.00000000       0.00350849 </v>
   <v>       0.00096870       0.00002078      -0.00002078 </v>
   <v>       0.00017357       0.00049455      -0.00023982 </v>
   <v>       0.00073119       0.00043038       0.00043038 </v>
   <v>       0.00096870       0.00002078       0.00002078 </v>
   <v>       0.00017357       0.00049455       0.00023982 </v>
   <v>       0.00073119       0.00043038      -0.00043038 </v>
   <v>       0.00382083       0.00000000      -0.00350849 </v>
   <v>       0.00017357       0.00023982       0.00049455 </v>
   <v>      -0.00001469      -0.00000000      -0.00000000 </v>
   <v>       0.00011998       0.00020126      -0.00042899 </v>
   <v>      -0.00064977       0.00000000       0.00004821 </v>
   <v>       0.00073119      -0.00043038       0.00043038 </v>
   <v>       0.00011998      -0.00042899       0.00020126 </v>
   <v>      -0.00028943      -0.00002213      -0.00002213 </v>
   <v>      -0.00014125       0.00000000      -0.00012671 </v>
   <v>       0.00382083      -0.00350849       0.00000000 </v>
   <v>      -0.00064977       0.00004821       0.00000000 </v>
   <v>      -0.00014125      -0.00012671       0.00000000 </v>
   <v>       0.00115442       0.00000000       0.00000000 </v>
   <v>      -0.00004994       0.00000000      -0.00000000 </v>
   <v>       0.00017357      -0.00023982      -0.00049455 </v>
   <v>      -0.00000489       0.00000000       0.00008630 </v>
   <v>       0.00011998      -0.00020126      -0.00042899 </v>
   <v>       0.00017357      -0.00049455      -0.00023982 </v>
   <v>       0.00080491      -0.00048003      -0.00048003 </v>
   <v>      -0.00020194       0.00000000       0.00007628 </v>
   <v>      -0.00028943       0.00002213      -0.00002213 </v>
   <v>      -0.00000489       0.00008630      -0.00000000 </v>
   <v>      -0.00020194       0.00007628       0.00000000 </v>
   <v>      -0.00031713       0.00000000       0.00000000 </v>
   <v>      -0.00014125       0.00012671       0.00000000 </v>
   <v>       0.00011998      -0.00042899      -0.00020126 </v>
   <v>      -0.00028943      -0.00002213       0.00002213 </v>
   <v>      -0.00014125       0.00000000       0.00012671 </v>
   <v>       0.00073119      -0.00043038      -0.00043038 </v>
   <v>       0.00096870      -0.00002078      -0.00002078 </v>
   <v>       0.00428139       0.00000000      -0.00399380 </v>
   <v>       0.00080491       0.00048003      -0.00048003 </v>
   <v>       0.00011998       0.00042899       0.00020126 </v>
   <v>       0.00428139      -0.00399380       0.00000000 </v>
   <v>       0.00117671       0.00000000       0.00000000 </v>
   <v>      -0.00020194      -0.00007628       0.00000000 </v>
   <v>      -0.00064977      -0.00004821       0.00000000 </v>
   <v>       0.00080491      -0.00048003       0.00048003 </v>
   <v>      -0.00020194       0.00000000      -0.00007628 </v>
   <v>      -0.00028943       0.00002213       0.00002213 </v>
   <v>       0.00017357      -0.00049455       0.00023982 </v>
   <v>       0.00011998       0.00020126       0.00042899 </v>
   <v>      -0.00064977       0.00000000      -0.00004821 </v>
   <v>       0.00017357       0.00023982      -0.00049455 </v>
   <v>      -0.00001469       0.00000000       0.00000000 </v>
  </varray>
  <varray name="stress" >
   <v>    -373.23043664       0.00000000       0.00000000 </v>
   <v>       0.00000000    -373.22919908       0.00000000 </v>
   <v>       0.00000000       0.00000000    -373.22919908 </v>
  </varray>
  <energy>
   <i name="e_fr_energy">   -351.81365017 </i>
   <i name="e_wo_entrp">   -351.70996758 </i>
   <i name="e_0_energy">     -0.31104777 </i>
  </energy>
  <kpoints>
   <generation param="Gamma">
    <v type="int" name="divisions">       5        5        5 </v>
    <v name="usershift">      0.00000000       0.00000000       0.00000000 </v>
    <v name="genvec1">      0.20000000       0.00000000       0.00000000 </v>
    <v name="genvec2">      0.00000000       0.20000000       0.00000000 </v>
    <v name="genvec3">      0.00000000       0.00000000       0.20000000 </v>
    <v name="shift">      0.00000000       0.00000000       0.00000000 </v>
   </generation>
   <varray name="kpointlist" >
    <v>       0.00000000       0.00000000       0.00000000 </v>
    <v>       0.20000000       0.00000000       0.00000000 </v>
    <v>       0.40000000       0.00000000       0.00000000 </v>
    <v>       0.20000000       0.20000000       0.00000000 </v>
    <v>       0.40000000       0.20000000       0.00000000 </v>
    <v>      -0.40000000       0.20000000       0.00000000 </v>
    <v>      -0.20000000       0.20000000       0.00000000 </v>
    <v>       0.40000000       0.40000000       0.00000000 </v>
    <v>      -0.40000000       0.40000000       0.00000000 </v>
    <v>       0.00000000       0.20000000       0.20000000 </v>
    <v>       0.40000000       0.20000000       0.20000000 </v>
    <v>      -0.40000000       0.20000000       0.20000000 </v>
    <v>      -0.20000000       0.20000000       0.20000000 </v>
    <v>      -0.40000000       0.40000000       0.20000000 </v>
    <v>      -0.20000000       0.40000000       0.20000000 </v>
    <v>       0.40000000      -0.40000000       0.20000000 </v>
    <v>       0.00000000       0.40000000       0.40000000 </v>
    <v>      -0.20000000       0.40000000       0.40000000 </v>
   </varray>
   <varray name="weights" >
    <v>       0.00800000 </v>
    <v>       0.06400000 </v>
    <v>       0.06400000 </v>
    <v>       0.03200000 </v>
    <v>       0.12800000 </v>
    <v>       0.12800000 </v>
    <v>       0.06400000 </v>
    <v>       0.03200000 </v>
    <v>       0.06400000 </v>
    <v>       0.01600000 </v>
    <v>       0.03200000 </v>
    <v>       0.06400000 </v>
    <v>       0.06400000 </v>
    <v>       0.06400000 </v>
    <v>       0.06400000 </v>
    <v>       0.06400000 </v>
    <v>       0.01600000 </v>
    <v>       0.03200000 </v>
   </varray>
  </kpoints>
  <time name="totalsc">12132.4424214.25</time>
 </calculation>
 <calculation>
  <scstep>
   <time name="dav">  889.01 1776.13</time>
   <time name="total">  920.58 1839.17</time>
   <energy>
    <i name="alphaZ">   7925.72117195 </i>
    <i name="ewald">-142726.42868068 </i>
    <i name="hartreedc"> -66222.74289710 </i>
    <i name="XCdc">   5592.96102563 </i>
    <i name="pawpsdc"> 170170.85839558 </i>
    <i name="pawaedc">-179181.78510244 </i>
    <i name="eentropy">     -0.31094745 </i>
    <i name="bandstr"> -19923.11286649 </i>
    <i name="atom"> 224013.29143063 </i>
    <i name="e_fr_energy">   -351.54847038 </i>
    <i name="e_wo_entrp">   -351.23752292 </i>
    <i name="e_0_energy">   -351.44482122 </i>
   </energy>
  </scstep>
  <scstep>
   <time name="dav">  726.31 1451.14</time>
   <time name="total">  757.34 1513.10</time>
   <energy>
    <i name="e_fr_energy">   -351.83296794 </i>
    <i name="e_wo_entrp">   -351.52370425 </i>
    <i name="e_0_energy">   -351.72988005 </i>
   </energy>
  </scstep>
  <scstep>
   <time name="dav">  815.91 1630.09</time>
   <time name="total">  847.46 1693.11</time>
   <energy>
    <i name="e_fr_energy">   -351.81666993 </i>
    <i name="e_wo_entrp">   -351.50566472 </i>
    <i name="e_0_energy">   -351.71300153 </i>
   </energy>
  </scstep>
  <scstep>
   <time name="dav">  846.77 1686.44</time>
   <time name="total">  878.41 1749.67</time>
   <energy>
    <i name="e_fr_energy">   -351.82648920 </i>
    <i name="e_wo_entrp">   -351.51623729 </i>
    <i name="e_0_energy">   -351.72307189 </i>
   </energy>
  </scstep>
  <scstep>
   <time name="dav">  756.34 1511.09</time>
   <time name="total">  787.38 1573.10</time>
   <energy>
    <i name="e_fr_energy">   -351.81433755 </i>
    <i name="e_wo_entrp">   -351.50325793 </i>
    <i name="e_0_energy">   -351.71064434 </i>
   </energy>
  </scstep>
  <scstep>
   <time name="dav">  870.28 1738.70</time>
   <time name="total">  901.94 1801.94</time>
   <energy>
    <i name="e_fr_energy">   -351.81404917 </i>
    <i name="e_wo_entrp">   -351.50295686 </i>
    <i name="e_0_energy">   -351.71035174 </i>
   </energy>
  </scstep>
  <scstep>
   <time name="dav">  781.17 1560.76</time>
   <time name="total">  812.40 1623.13</time>
   <energy>
    <i name="e_fr_energy">   -351.81402880 </i>
    <i name="e_wo_entrp">   -351.50294645 </i>
    <i name="e_0_energy">   -351.71033468 </i>
   </energy>
  </scstep>
  <scstep>
   <time name="dav">  759.36 1517.19</time>
   <time name="total">  790.24 1578.86</time>
   <energy>
    <i name="e_fr_energy">   -351.81387313 </i>
    <i name="e_wo_entrp">   -351.50279997 </i>
    <i name="e_0_energy">   -351.71018208 </i>
   </energy>
  </scstep>
  <scstep>
   <time name="dav">  762.73 1523.93</time>
   <time name="total">  793.65 1585.67</time>
   <energy>
    <i name="e_fr_energy">   -351.81395458 </i>
    <i name="e_wo_entrp">   -351.50289189 </i>
    <i name="e_0_energy">   -351.71026702 </i>
   </energy>
  </scstep>
  <scstep>
   <time name="dav">  824.18 1646.78</time>
   <time name="total">  855.12 1708.60</time>
   <energy>
    <i name="e_fr_energy">   -351.81385642 </i>
    <i name="e_wo_entrp">   -351.50282858 </i>
    <i name="e_0_energy">   -351.71018047 </i>
   </energy>
  </scstep>
  <scstep>
   <time name="dav">  855.49 1709.28</time>
   <time name="total">  886.44 1771.06</time>
   <energy>
    <i name="e_fr_energy">   -351.81364528 </i>
    <i name="e_wo_entrp">   -351.50260343 </i>
    <i name="e_0_energy">   -351.70996466 </i>
   </energy>
  </scstep>
  <scstep>
   <time name="dav">  949.34 1896.84</time>
   <time name="total">  980.16 1958.37</time>
   <energy>
    <i name="e_fr_energy">   -351.81367727 </i>
    <i name="e_wo_entrp">   -351.50263646 </i>
    <i name="e_0_energy">   -351.70999700 </i>
   </energy>
  </scstep>
  <scstep>
   <time name="dav">  750.31 1499.10</time>
   <time name="total">  781.14 1560.68</time>
   <energy>
    <i name="e_fr_energy">   -351.81364962 </i>
    <i name="e_wo_entrp">   -351.50260365 </i>
    <i name="e_0_energy">   -351.70996763 </i>
   </energy>
  </scstep>
  <scstep>
   <time name="dav">  833.42 1665.19</time>
   <time name="total">  865.02 1728.29</time>
   <energy>
    <i name="e_fr_energy">   -351.81365406 </i>
    <i name="e_wo_entrp">   -351.50260911 </i>
    <i name="e_0_energy">   -351.70997241 </i>
   </energy>
  </scstep>
  <scstep>
   <time name="dav">  618.85 1236.51</time>
   <time name="total">  650.56 1299.88</time>
   <energy>
    <i name="e_fr_energy">   -351.81364941 </i>
    <i name="e_wo_entrp">   -351.50260137 </i>
    <i name="e_0_energy">   -351.70996673 </i>
   </energy>
  </scstep>
  <scstep>
   <time name="dav">  459.79  918.63</time>
   <time name="total">  460.81  920.69</time>
   <energy>
    <i name="alphaZ">   7925.72117195 </i>
    <i name="ewald">-142726.42868068 </i>
    <i name="hartreedc"> -66222.70288142 </i>
    <i name="XCdc">   5592.95888346 </i>
    <i name="pawpsdc"> 170170.85259855 </i>
    <i name="pawaedc">-179181.78090388 </i>
    <i name="eentropy">     -0.31104750 </i>
    <i name="bandstr"> -19923.41422096 </i>
    <i name="atom"> 224013.29143063 </i>
    <i name="e_fr_energy">   -351.81364984 </i>
    <i name="e_wo_entrp">   -351.50260234 </i>
    <i name="e_0_energy">   -351.70996734 </i>
   </energy>
  </scstep>
  <structure>
   <crystal>
    <varray name="basis" >
     <v>       0.00000000       7.57875000       7.57875000 </v>
     <v>       7.57875000       0.00000000       7.57875000 </v>
     <v>       7.57875000       7.57875000       0.00000000 </v>
    </varray>
    <i name="volume">    870.60817206 </i>
    <varray name="rec_basis" >
     <v>      -0.06597394       0.06597394       0.06597394 </v>
     <v>       0.06597394      -0.06597394       0.06597394 </v>
     <v>       0.06597394       0.06597394      -0.06597394 </v>
    </varray>
   </crystal>
   <varray name="positions" >
    <v>       0.00098961      -0.00098961      -0.00098961 </v>
    <v>       0.00000000       0.00000000       0.25000000 </v>
    <v>       0.00000000       0.00000000       0.50000000 </v>
    <v>       0.00000000       0.00000000       0.75000000 </v>
    <v>       0.00000000       0.25000000       0.00000000 </v>
    <v>       0.00000000       0.25000000       0.25000000 </v>
    <v>       0.00000000       0.25000000       0.50000000 </v>
    <v>       0.00000000       0.25000000       0.75000000 </v>
    <v>       0.00000000       0.50000000       0.00000000 </v>
    <v>       0.00000000       0.50000000       0.25000000 </v>
    <v>       0.00000000       0.50000000       0.50000000 </v>
    <v>       0.00000000       0.50000000       0.75000000 </v>
    <v>       0.00000000       0.75000000       0.00000000 </v>
    <v>       0.00000000       0.75000000       0.25000000 </v>
    <v>       0.00000000       0.75000000       0.50000000 </v>
    <v>       0.00000000       0.75000000       0.75000000 </v>
    <v>       0.25000000       0.00000000       0.00000000 </v>
    <v>       0.25000000       0.00000000       0.25000000 </v>
    <v>       0.25000000       0.00000000       0.50000000 </v>
    <v>       0.25000000       0.00000000       0.75000000 </v>
    <v>       0.25000000       0.25000000       0.00000000 </v>
    <v>       0.25000000       0.25000000       0.25000000 </v>
    <v>       0.25000000       0.25000000       0.50000000 </v>
    <v>       0.25000000       0.25000000       0.75000000 </v>
    <v>       0.25000000       0.50000000       0.00000000 </v>
    <v>       0.25000000       0.50000000       0.25000000 </v>
    <v>       0.25000000       0.50000000       0.50000000 </v>
    <v>       0.25000000       0.50000000       0.75000000 </v>
    <v>       0.25000000       0.75000000       0.00000000 </v>
    <v>       0.25000000       0.75000000       0.25000000 </v>
    <v>       0.25000000       0.75000000       0.50000000 </v>
    <v>       0.25000000       0.75000000       0.75000000 </v>
    <v>       0.50000000       0.00000000       0.00000000 </v>
    <v>       0.50000000       0.00000000       0.25000000 </v>
    <v>       0.50000000       0.00000000       0.50000000 </v>
    <v>       0.50000000       0.00000000       0.75000000 </v>
    <v>       0.50000000       0.25000000       0.00000000 </v>
    <v>       0.50000000       0.25000000       0.25000000 </v>
    <v>       0.50000000       0.25000000       0.50000000 </v>
    <v>       0.50000000       0.25000000       0.75000000 </v>
    <v>       0.50000000       0.50000000       0.00000000 </v>
    <v>       0.50000000       0.50000000       0.25000000 </v>
    <v>       0.50000000       0.50000000       0.50000000 </v>
    <v>       0.50000000       0.50000000       0.75000000 </v>
    <v>       0.50000000       0.75000000       0.00000000 </v>
    <v>       0.50000000       0.75000000       0.25000000 </v>
    <v>       0.50000000       0.75000000       0.50000000 </v>
    <v>       0.50000000       0.75000000       0.75000000 </v>
    <v>       0.75000000       0.00000000       0.00000000 </v>
    <v>       0.75000000       0.00000000       0.25000000 </v>
    <v>       0.75000000       0.00000000       0.50000000 </v>
    <v>       0.75000000       0.00000000       0.75000000 </v>
    <v>       0.75000000       0.25000000       0.00000000 </v>
    <v>       0.75000000       0.25000000       0.25000000 </v>
    <v>       0.75000000       0.25000000       0.50000000 </v>
    <v>       0.75000000       0.25000000       0.75000000 </v>
    <v>       0.75000000       0.50000000       0.00000000 </v>
    <v>       0.75000000       0.50000000       0.25000000 </v>
    <v>       0.75000000       0.50000000       0.50000000 </v>
    <v>       0.75000000       0.50000000       0.75000000 </v>
    <v>       0.75000000       0.75000000       0.00000000 </v>
    <v>       0.75000000       0.75000000       0.25000000 </v>
    <v>       0.75000000       0.75000000       0.50000000 </v>
    <v>       0.75000000       0.75000000       0.75000000 </v>
   </varray>
  </structure>
  <varray name="forces" >
   <v>       0.04245117      -0.00000000      -0.00000000 </v>
   <v>      -0.00403612      -0.00385353      -0.00000000 </v>
   <v>      -0.00001886       0.00007240      -0.00000000 </v>
   <v>      -0.00451743      -0.00437442      -0.00000000 </v>
   <v>      -0.00403612      -0.00000000      -0.00385353 </v>
   <v>      -0.00072808      -0.00042600      -0.00042600 </v>
   <v>      -0.00012934      -0.00049838       0.00023013 </v>
   <v>      -0.00085415      -0.00005283       0.00005283 </v>
   <v>      -0.00001886      -0.00000000       0.00007240 </v>
   <v>      -0.00012934       0.00023013      -0.00049838 </v>
   <v>       0.00009136      -0.00000000      -0.00000000 </v>
   <v>      -0.00012547       0.00020080      -0.00040655 </v>
   <v>      -0.00451743      -0.00000000      -0.00437442 </v>
   <v>      -0.00085415       0.00005283      -0.00005283 </v>
   <v>      -0.00012547      -0.00040655       0.00020080 </v>
   <v>      -0.00081820      -0.00046126      -0.00046126 </v>
   <v>      -0.00085415       0.00005283       0.00005283 </v>
   <v>      -0.00012547      -0.00040655      -0.00020080 </v>
   <v>      -0.00081820      -0.00046126       0.00046126 </v>
   <v>      -0.00451743      -0.00000000       0.00437442 </v>
   <v>      -0.00012547      -0.00020080      -0.00040655 </v>
   <v>      -0.00001689      -0.00000000      -0.00000000 </v>
   <v>      -0.00012934      -0.00023013       0.00049838 </v>
   <v>       0.00068721      -0.00000000       0.00007883 </v>
   <v>      -0.00081820       0.00046126      -0.00046126 </v>
   <v>      -0.00012934       0.00049838      -0.00023013 </v>
   <v>       0.00033874      -0.00002119      -0.00002119 </v>
   <v>       0.00016428      -0.00000000       0.00007250 </v>
   <v>      -0.00451743       0.00437442      -0.00000000 </v>
   <v>       0.00068721       0.00007883      -0.00000000 </v>
   <v>       0.00016428       0.00007250      -0.00000000 </v>
   <v>      -0.00123976      -0.00000000      -0.00000000 </v>
   <v>       0.00009136      -0.00000000      -0.00000000 </v>
   <v>      -0.00012547       0.00020080       0.00040655 </v>
   <v>      -0.00001886      -0.00000000      -0.00007240 </v>
   <v>      -0.00012934       0.00023013       0.00049838 </v>
   <v>      -0.00012547       0.00040655       0.00020080 </v>
   <v>      -0.00072808       0.00042600       0.00042600 </v>
   <v>       0.00015181      -0.00000000      -0.00011867 </v>
   <v>       0.00033874       0.00002119      -0.00002119 </v>
   <v>      -0.00001886      -0.00007240      -0.00000000 </v>
   <v>       0.00015181      -0.00011867      -0.00000000 </v>
   <v>       0.00039029      -0.00000000      -0.00000000 </v>
   <v>       0.00016428      -0.00007250      -0.00000000 </v>
   <v>      -0.00012934       0.00049838       0.00023013 </v>
   <v>       0.00033874      -0.00002119       0.00002119 </v>
   <v>       0.00016428      -0.00000000      -0.00007250 </v>
   <v>      -0.00081820       0.00046126       0.00046126 </v>
   <v>      -0.00085415      -0.00005283      -0.00005283 </v>
   <v>      -0.00403612      -0.00000000       0.00385353 </v>
   <v>      -0.00072808      -0.00042600       0.00042600 </v>
   <v>      -0.00012934      -0.00049838      -0.00023013 </v>
   <v>      -0.00403612       0.00385353      -0.00000000 </v>
   <v>      -0.00118892      -0.00000000      -0.00000000 </v>
   <v>       0.00015181       0.00011867      -0.00000000 </v>
   <v>       0.00068721      -0.00007883      -0.00000000 </v>
   <v>      -0.00072808       0.00042600      -0.00042600 </v>
   <v>       0.00015181      -0.00000000       0.00011867 </v>
   <v>       0.00033874       0.00002119       0.00002119 </v>
   <v>      -0.00012547       0.00040655      -0.00020080 </v>
   <v>      -0.00012934      -0.00023013      -0.00049838 </v>
   <v>       0.00068721      -0.00000000      -0.00007883 </v>
   <v>      -0.00012547      -0.00020080       0.00040655 </v>
   <v>      -0.00001689      -0.00000000      -0.00000000 </v>
  </varray>
  <varray name="stress" >
   <v>    -373.23874666      -0.00000000       0.00000000 </v>
   <v>       0.00000000    -373.23583562       0.00000000 </v>
   <v>      -0.00000000       0.00000000    -373.23583562 </v>
  </varray>
  <energy>
   <i name="e_fr_energy">   -351.81364984 </i>
   <i name="e_wo_entrp">   -351.70996734 </i>
   <i name="e_0_energy">     -0.31104750 </i>
  </energy>
  <dynmat>
   <varray name="hessian" >
    <v>      -0.04768741       0.00000000       0.00000000       0.00472987       0.00446704      -0.00000000       0.00000793      -0.00009014       0.00000000       0.00472987       0.00446704       0.00000000       0.00472987      -0.00000000       0.00446704       0.00087533       0.00051487       0.00051487       0.00015572       0.00051487      -0.00024763       0.00103530      -0.00000000       0.00000000       0.00000793      -0.00000000      -0.00009014       0.00015572      -0.00024763       0.00051487      -0.00008025      -0.00000000       0.00000000       0.00015572      -0.00024763       0.00051487       0.00472987       0.00000000       0.00446704       0.00103530      -0.00000000      -0.00000000       0.00015572       0.00051487      -0.00024763       0.00087533       0.00051487       0.00051487       0.00103530       0.00000000       0.00000000       0.00015572       0.00051487       0.00024763       0.00087533       0.00051487      -0.00051487       0.00472987       0.00000000      -0.00446704       0.00015572       0.00024763       0.00051487       0.00000125      -0.00000000       0.00000000       0.00015572       0.00024763      -0.00051487      -0.00075935       0.00000000       0.00000000       0.00087533      -0.00051487       0.00051487       0.00015572      -0.00051487       0.00024763      -0.00035678      -0.00000000      -0.00000000      -0.00018722       0.00000000      -0.00011193       0.00472987      -0.00446704       0.00000000      -0.00075935       0.00000000       0.00000000      -0.00018722      -0.00011193      -0.00000000       0.00135168       0.00000000       0.00000000      -0.00008025      -0.00000000       0.00000000       0.00015572      -0.00024763      -0.00051487       0.00000793      -0.00000000       0.00009014       0.00015572      -0.00024763      -0.00051487       0.00015572      -0.00051487      -0.00024763       0.00087533      -0.00051487      -0.00051487      -0.00018722      -0.00000000       0.00011193      -0.00035678      -0.00000000       0.00000000       0.00000793       0.00009014       0.00000000      -0.00018722       0.00011193      -0.00000000      -0.00040178       0.00000000       0.00000000      -0.00018722       0.00011193      -0.00000000       0.00015572      -0.00051487      -0.00024763      -0.00035678      -0.00000000       0.00000000      -0.00018722       0.00000000       0.00011193       0.00087533      -0.00051487      -0.00051487       0.00103530       0.00000000      -0.00000000       0.00472987      -0.00000000      -0.00446704       0.00087533       0.00051487      -0.00051487       0.00015572       0.00051487       0.00024763       0.00472987      -0.00446704      -0.00000000       0.00135168      -0.00000000      -0.00000000      -0.00018722      -0.00011193      -0.00000000      -0.00075935      -0.00000000       0.00000000       0.00087533      -0.00051487       0.00051487      -0.00018722       0.00000000      -0.00011193      -0.00035678      -0.00000000      -0.00000000       0.00015572      -0.00051487       0.00024763       0.00015572       0.00024763       0.00051487      -0.00075935       0.00000000      -0.00000000       0.00015572       0.00024763      -0.00051487       0.00000125      -0.00000000       0.00000000 </v>
    <v>       0.00000000      -0.04768741       0.00000000       0.00446704       0.00472987       0.00000000      -0.00009014       0.00000793       0.00000000       0.00446704       0.00472987       0.00000000       0.00000000       0.00103530       0.00000000       0.00051487       0.00015572       0.00024763       0.00051487       0.00087533      -0.00051487      -0.00000000       0.00472987      -0.00446704      -0.00000000      -0.00008025      -0.00000000      -0.00024763       0.00015572      -0.00051487      -0.00000000       0.00000793       0.00009014      -0.00024763       0.00015572      -0.00051487      -0.00000000       0.00103530       0.00000000      -0.00000000       0.00472987      -0.00446704       0.00051487       0.00087533      -0.00051487       0.00051487       0.00015572       0.00024763       0.00000000       0.00472987       0.00446704       0.00051487       0.00087533       0.00051487       0.00051487       0.00015572      -0.00024763      -0.00000000       0.00103530      -0.00000000       0.00024763       0.00015572       0.00051487      -0.00000000       0.00000125       0.00000000       0.00024763       0.00015572      -0.00051487       0.00000000      -0.00075935       0.00000000      -0.00051487       0.00015572      -0.00024763      -0.00051487       0.00087533      -0.00051487      -0.00000000      -0.00018722       0.00011193       0.00000000      -0.00035678      -0.00000000      -0.00446704       0.00472987      -0.00000000      -0.00000000       0.00135168      -0.00000000      -0.00011193      -0.00018722       0.00000000      -0.00000000      -0.00075935       0.00000000      -0.00000000       0.00000793      -0.00009014      -0.00024763       0.00015572       0.00051487      -0.00000000      -0.00008025      -0.00000000      -0.00024763       0.00015572       0.00051487      -0.00051487       0.00087533       0.00051487      -0.00051487       0.00015572       0.00024763       0.00000000      -0.00035678       0.00000000      -0.00000000      -0.00018722      -0.00011193       0.00009014       0.00000793       0.00000000       0.00011193      -0.00018722      -0.00000000       0.00000000      -0.00040178       0.00000000       0.00011193      -0.00018722      -0.00000000      -0.00051487       0.00087533       0.00051487      -0.00000000      -0.00018722      -0.00011193      -0.00000000      -0.00035678      -0.00000000      -0.00051487       0.00015572       0.00024763       0.00000000       0.00472987       0.00446704       0.00000000       0.00103530      -0.00000000       0.00051487       0.00015572      -0.00024763       0.00051487       0.00087533       0.00051487      -0.00446704       0.00472987      -0.00000000       0.00000000      -0.00075935       0.00000000      -0.00011193      -0.00018722       0.00000000       0.00000000       0.00135168       0.00000000      -0.00051487       0.00015572      -0.00024763       0.00000000      -0.00035678      -0.00000000      -0.00000000      -0.00018722       0.00011193      -0.00051487       0.00087533      -0.00051487       0.00024763       0.00015572       0.00051487       0.00000000      -0.00075935      -0.00000000       0.00024763       0.00015572      -0.00051487      -0.00000000       0.00000125       0.00000000 </v>
[...]
       <r>    18.9121     0.0000   648.0000 </r>
       <r>    19.1896     0.0000   648.0000 </r>
       <r>    19.4671     0.0000   648.0000 </r>
       <r>    19.7445     0.0000   648.0000 </r>
       <r>    20.0220     0.0000   648.0000 </r>
       <r>    20.2995     0.0000   648.0000 </r>
       <r>    20.5770     0.0000   648.0000 </r>
       <r>    20.8545     0.0000   648.0000 </r>
       <r>    21.1319     0.0000   648.0000 </r>
      </set>
      <set comment="spin 2">
       <r>   -62.1115     0.0000     0.0000 </r>
       <r>   -61.8340     0.0000     0.0000 </r>
       <r>   -61.5566     0.0000     0.0000 </r>
       <r>   -61.2791     0.0000     0.0000 </r>
       <r>   -61.0016     0.0000     0.0000 </r>
       <r>   -60.7241     0.0000     0.0000 </r>
       <r>   -60.4467     0.0000     0.0000 </r>
       <r>   -60.1692     0.0000     0.0000 </r>
       <r>   -59.8917     0.0000     0.0000 </r>
       <r>   -59.6142     0.0000     0.0000 </r>
       <r>   -59.3367     0.0000     0.0000 </r>
       <r>   -59.0593    -0.0000    -0.0000 </r>
       <r>   -58.7818    -0.0000    -0.0000 </r>
       <r>   -58.5043    -0.0000    -0.0000 </r>
       <r>   -58.2268    -0.0000    -0.0000 </r>
       <r>   -57.9493    -0.1300    -0.0361 </r>
       <r>   -57.6719   -17.6845    -4.9431 </r>
       <r>   -57.3944   281.6846    73.2182 </r>
       <r>   -57.1169   450.7547   198.2928 </r>
       <r>   -56.8394   -22.1520   192.1461 </r>
       <r>   -56.5620    -0.5264   192.0000 </r>
       <r>   -56.2845    -0.0001   192.0000 </r>
       <r>   -56.0070    -0.0000   192.0000 </r>
       <r>   -55.7295     0.0000   192.0000 </r>
       <r>   -55.4520     0.0000   192.0000 </r>
       <r>   -55.1746     0.0000   192.0000 </r>
       <r>   -54.8971     0.0000   192.0000 </r>
       <r>   -54.6196     0.0000   192.0000 </r>
       <r>   -54.3421     0.0000   192.0000 </r>
       <r>   -54.0647     0.0000   192.0000 </r>
       <r>   -53.7872     0.0000   192.0000 </r>
       <r>   -53.5097     0.0000   192.0000 </r>
       <r>   -53.2322     0.0000   192.0000 </r>
       <r>   -52.9547     0.0000   192.0000 </r>
       <r>   -52.6773     0.0000   192.0000 </r>
       <r>   -52.3998     0.0000   192.0000 </r>
       <r>   -52.1223     0.0000   192.0000 </r>
       <r>   -51.8448     0.0000   192.0000 </r>
       <r>   -51.5674     0.0000   192.0000 </r>
       <r>   -51.2899     0.0000   192.0000 </r>
       <r>   -51.0124     0.0000   192.0000 </r>
       <r>   -50.7349     0.0000   192.0000 </r>
       <r>   -50.4574     0.0000   192.0000 </r>
       <r>   -50.1800     0.0000   192.0000 </r>
       <r>   -49.9025     0.0000   192.0000 </r>
       <r>   -49.6250     0.0000   192.0000 </r>
       <r>   -49.3475     0.0000   192.0000 </r>
       <r>   -49.0700     0.0000   192.0000 </r>
       <r>   -48.7926     0.0000   192.0000 </r>
       <r>   -48.5151     0.0000   192.0000 </r>
       <r>   -48.2376     0.0000   192.0000 </r>
       <r>   -47.9601     0.0000   192.0000 </r>
       <r>   -47.6827     0.0000   192.0000 </r>
       <r>   -47.4052     0.0000   192.0000 </r>
       <r>   -47.1277     0.0000   192.0000 </r>
       <r>   -46.8502     0.0000   192.0000 </r>
       <r>   -46.5727     0.0000   192.0000 </r>
       <r>   -46.2953     0.0000   192.0000 </r>
       <r>   -46.0178     0.0000   192.0000 </r>
       <r>   -45.7403     0.0000   192.0000 </r>
       <r>   -45.4628     0.0000   192.0000 </r>
       <r>   -45.1854     0.0000   192.0000 </r>
       <r>   -44.9079     0.0000   192.0000 </r>
       <r>   -44.6304     0.0000   192.0000 </r>
       <r>   -44.3529     0.0000   192.0000 </r>
       <r>   -44.0754     0.0000   192.0000 </r>
       <r>   -43.7980     0.0000   192.0000 </r>
       <r>   -43.5205     0.0000   192.0000 </r>
       <r>   -43.2430     0.0000   192.0000 </r>
       <r>   -42.9655     0.0000   192.0000 </r>
       <r>   -42.6880     0.0000   192.0000 </r>
       <r>   -42.4106     0.0000   192.0000 </r>
       <r>   -42.1331     0.0000   192.0000 </r>
       <r>   -41.8556     0.0000   192.0000 </r>
       <r>   -41.5781     0.0000   192.0000 </r>
       <r>   -41.3007     0.0000   192.0000 </r>
       <r>   -41.0232     0.0000   192.0000 </r>
       <r>   -40.7457     0.0000   192.0000 </r>
       <r>   -40.4682     0.0000   192.0000 </r>
       <r>   -40.1907     0.0000   192.0000 </r>
       <r>   -39.9133     0.0000   192.0000 </r>
       <r>   -39.6358     0.0000   192.0000 </r>
       <r>   -39.3583     0.0000   192.0000 </r>
       <r>   -39.0808     0.0000   192.0000 </r>
       <r>   -38.8034     0.0000   192.0000 </r>
       <r>   -38.5259     0.0000   192.0000 </r>
       <r>   -38.2484     0.0000   192.0000 </r>
       <r>   -37.9709     0.0000   192.0000 </r>
       <r>   -37.6934     0.0000   192.0000 </r>
       <r>   -37.4160     0.0000   192.0000 </r>
       <r>   -37.1385     0.0000   192.0000 </r>
       <r>   -36.8610     0.0000   192.0000 </r>
       <r>   -36.5835     0.0000   192.0000 </r>
       <r>   -36.3061     0.0000   192.0000 </r>
       <r>   -36.0286     0.0000   192.0000 </r>
       <r>   -35.7511     0.0000   192.0000 </r>
       <r>   -35.4736     0.0000   192.0000 </r>
       <r>   -35.1961     0.0000   192.0000 </r>
       <r>   -34.9187     0.0000   192.0000 </r>
       <r>   -34.6412     0.0000   192.0000 </r>
       <r>   -34.3637     0.0000   192.0000 </r>
       <r>   -34.0862     0.0000   192.0000 </r>
       <r>   -33.8087     0.0000   192.0000 </r>
       <r>   -33.5313     0.0000   192.0000 </r>
       <r>   -33.2538     0.0000   192.0000 </r>
       <r>   -32.9763     0.0000   192.0000 </r>
       <r>   -32.6988     0.0000   192.0000 </r>
       <r>   -32.4214     0.0000   192.0000 </r>
       <r>   -32.1439     0.0000   192.0000 </r>
       <r>   -31.8664     0.0000   192.0000 </r>
       <r>   -31.5889     0.0000   192.0000 </r>
       <r>   -31.3114     0.0000   192.0000 </r>
       <r>   -31.0340     0.0000   192.0000 </r>
       <r>   -30.7565     0.0000   192.0000 </r>
       <r>   -30.4790     0.0000   192.0000 </r>
       <r>   -30.2015     0.0000   192.0000 </r>
       <r>   -29.9241     0.0000   192.0000 </r>
       <r>   -29.6466     0.0000   192.0000 </r>
       <r>   -29.3691     0.0000   192.0000 </r>
       <r>   -29.0916     0.0000   192.0000 </r>
       <r>   -28.8141     0.0000   192.0000 </r>
       <r>   -28.5367     0.0000   192.0000 </r>
       <r>   -28.2592     0.0000   192.0000 </r>
       <r>   -27.9817     0.0000   192.0000 </r>
       <r>   -27.7042     0.0000   192.0000 </r>
       <r>   -27.4267     0.0000   192.0000 </r>
       <r>   -27.1493     0.0000   192.0000 </r>
       <r>   -26.8718     0.0000   192.0000 </r>
       <r>   -26.5943     0.0000   192.0000 </r>
       <r>   -26.3168     0.0000   192.0000 </r>
       <r>   -26.0394     0.0000   192.0000 </r>
       <r>   -25.7619     0.0000   192.0000 </r>
       <r>   -25.4844     0.0000   192.0000 </r>
       <r>   -25.2069     0.0000   192.0000 </r>
       <r>   -24.9294     0.0000   192.0000 </r>
       <r>   -24.6520     0.0000   192.0000 </r>
       <r>   -24.3745     0.0000   192.0000 </r>
       <r>   -24.0970     0.0000   192.0000 </r>
       <r>   -23.8195     0.0000   192.0000 </r>
       <r>   -23.5421     0.0000   192.0000 </r>
       <r>   -23.2646     0.0000   192.0000 </r>
       <r>   -22.9871     0.0000   192.0000 </r>
       <r>   -22.7096     0.0000   192.0000 </r>
       <r>   -22.4321     0.0000   192.0000 </r>
       <r>   -22.1547     0.0000   192.0000 </r>
       <r>   -21.8772     0.0000   192.0000 </r>
       <r>   -21.5997     0.0000   192.0000 </r>
       <r>   -21.3222     0.0000   192.0000 </r>
       <r>   -21.0448     0.0000   192.0000 </r>
       <r>   -20.7673     0.0000   192.0000 </r>
       <r>   -20.4898     0.0000   192.0000 </r>
       <r>   -20.2123     0.0000   192.0000 </r>
       <r>   -19.9348     0.0000   192.0000 </r>
       <r>   -19.6574     0.0000   192.0000 </r>
       <r>   -19.3799     0.0000   192.0000 </r>
       <r>   -19.1024     0.0000   192.0000 </r>
       <r>   -18.8249     0.0000   192.0000 </r>
       <r>   -18.5474     0.0000   192.0000 </r>
       <r>   -18.2700     0.0000   192.0000 </r>
       <r>   -17.9925     0.0000   192.0000 </r>
       <r>   -17.7150     0.0000   192.0000 </r>
       <r>   -17.4375     0.0000   192.0000 </r>
       <r>   -17.1601     0.0000   192.0000 </r>
       <r>   -16.8826     0.0000   192.0000 </r>
       <r>   -16.6051     0.0000   192.0000 </r>
       <r>   -16.3276     0.0000   192.0000 </r>
       <r>   -16.0501     0.0000   192.0000 </r>
       <r>   -15.7727     0.0000   192.0000 </r>
       <r>   -15.4952     0.0000   192.0000 </r>
       <r>   -15.2177     0.0000   192.0000 </r>
       <r>   -14.9402     0.0000   192.0000 </r>
       <r>   -14.6628     0.0000   192.0000 </r>
       <r>   -14.3853     0.0000   192.0000 </r>
       <r>   -14.1078     0.0000   192.0000 </r>
       <r>   -13.8303     0.0000   192.0000 </r>
       <r>   -13.5528     0.0000   192.0000 </r>
       <r>   -13.2754     0.0000   192.0000 </r>
       <r>   -12.9979     0.0000   192.0000 </r>
       <r>   -12.7204     0.0000   192.0000 </r>
       <r>   -12.4429     0.0000   192.0000 </r>
       <r>   -12.1654     0.0000   192.0000 </r>
       <r>   -11.8880     0.0000   192.0000 </r>
       <r>   -11.6105     0.0000   192.0000 </r>
       <r>   -11.3330     0.0000   192.0000 </r>
       <r>   -11.0555     0.0000   192.0000 </r>
       <r>   -10.7781     0.0000   192.0000 </r>
       <r>   -10.5006     0.0000   192.0000 </r>
       <r>   -10.2231     0.0000   192.0000 </r>
       <r>    -9.9456     0.0000   192.0000 </r>
       <r>    -9.6681     0.0000   192.0000 </r>
       <r>    -9.3907     0.0000   192.0000 </r>
       <r>    -9.1132     0.0000   192.0000 </r>
       <r>    -8.8357     0.0000   192.0000 </r>
       <r>    -8.5582     0.0000   192.0000 </r>
       <r>    -8.2808     0.0000   192.0000 </r>
       <r>    -8.0033     0.0000   192.0000 </r>
       <r>    -7.7258     0.0000   192.0000 </r>
       <r>    -7.4483     0.0000   192.0000 </r>
       <r>    -7.1708     0.0000   192.0000 </r>
       <r>    -6.8934     0.0000   192.0000 </r>
       <r>    -6.6159     0.0000   192.0000 </r>
       <r>    -6.3384     0.0000   192.0000 </r>
       <r>    -6.0609     0.0000   192.0000 </r>
       <r>    -5.7835     0.0000   192.0000 </r>
       <r>    -5.5060     0.0000   192.0000 </r>
       <r>    -5.2285     0.0000   192.0000 </r>
       <r>    -4.9510     0.0000   192.0000 </r>
       <r>    -4.6735     0.0000   192.0000 </r>
       <r>    -4.3961     0.0000   192.0000 </r>
       <r>    -4.1186    -0.0000   192.0000 </r>
       <r>    -3.8411    -0.0000   192.0000 </r>
       <r>    -3.5636    -0.0000   192.0000 </r>
       <r>    -3.2861    -0.0000   192.0000 </r>
       <r>    -3.0087    -0.0000   192.0000 </r>
       <r>    -2.7312    -0.0003   191.9999 </r>
       <r>    -2.4537    -0.0184   191.9948 </r>
       <r>    -2.1762     0.2699   192.0697 </r>
       <r>    -1.8988     1.3194   192.4358 </r>
       <r>    -1.6213     2.1011   193.0188 </r>
       <r>    -1.3438     2.4333   193.6940 </r>
       <r>    -1.0663     3.0551   194.5417 </r>
       <r>    -0.7888     3.6018   195.5412 </r>
       <r>    -0.5114     3.6856   196.5638 </r>
       <r>    -0.2339     4.4755   197.8057 </r>
       <r>     0.0436     5.0928   199.2188 </r>
       <r>     0.3211     4.9245   200.5853 </r>
       <r>     0.5985     6.6912   202.4420 </r>
       <r>     0.8760     5.7159   204.0280 </r>
       <r>     1.1535     8.7387   206.4528 </r>
       <r>     1.4310     8.2694   208.7474 </r>
       <r>     1.7085    11.3601   211.8995 </r>
       <r>     1.9859    14.7523   215.9930 </r>
       <r>     2.2634    25.4465   223.0538 </r>
       <r>     2.5409    34.5595   232.6433 </r>
       <r>     2.8184    39.1720   243.5127 </r>
       <r>     3.0959    61.9959   260.7152 </r>
       <r>     3.3733    70.2312   280.2029 </r>
       <r>     3.6508    70.9489   299.8896 </r>
       <r>     3.9283    97.3958   326.9148 </r>
       <r>     4.2058   118.4185   359.7734 </r>
       <r>     4.4832   120.4908   393.2070 </r>
       <r>     4.7607    95.3853   419.6743 </r>
       <r>     5.0382   112.5248   450.8975 </r>
       <r>     5.3157   102.5229   479.3453 </r>
       <r>     5.5932   140.7044   518.3877 </r>
       <r>     5.8706    52.3053   532.9013 </r>
       <r>     6.1481    12.9634   536.4984 </r>
       <r>     6.4256    12.8019   540.0506 </r>
       <r>     6.7031    14.9396   544.1960 </r>
       <r>     6.9805     9.1622   546.7383 </r>
       <r>     7.2580    12.8238   550.2967 </r>
       <r>     7.5355    10.6504   553.2519 </r>
       <r>     7.8130     8.9382   555.7321 </r>
       <r>     8.0905     9.4933   558.3662 </r>
       <r>     8.3679    11.9041   561.6694 </r>
       <r>     8.6454     6.0352   563.3440 </r>
       <r>     8.9229     6.7367   565.2133 </r>
       <r>     9.2004     9.3602   567.8105 </r>
       <r>     9.4778     6.4017   569.5869 </r>
       <r>     9.7553     4.4659   570.8261 </r>
       <r>    10.0328     5.1120   572.2446 </r>
       <r>    10.3103    10.2991   575.1023 </r>
       <r>    10.5878    10.8895   578.1239 </r>
       <r>    10.8652     9.9985   580.8983 </r>
       <r>    11.1427    11.6549   584.1323 </r>
       <r>    11.4202    10.0557   586.9225 </r>
       <r>    11.6977     8.9917   589.4175 </r>
       <r>    11.9752     7.6520   591.5408 </r>
       <r>    12.2526    10.9356   594.5751 </r>
       <r>    12.5301     8.7810   597.0117 </r>
       <r>    12.8076     7.4376   599.0755 </r>
       <r>    13.0851     6.2363   600.8059 </r>
       <r>    13.3625    12.1717   604.1833 </r>
       <r>    13.6400    12.5021   607.6523 </r>
       <r>    13.9175    12.8950   611.2304 </r>
       <r>    14.1950    12.1431   614.5999 </r>
       <r>    14.4725    11.8221   617.8802 </r>
       <r>    14.7499    10.1926   620.7085 </r>
       <r>    15.0274    15.9206   625.1261 </r>
       <r>    15.3049    14.6227   629.1835 </r>
       <r>    15.5824    10.6163   632.1293 </r>
       <r>    15.8598    12.9397   635.7198 </r>
       <r>    16.1373    12.3178   639.1377 </r>
       <r>    16.4148    14.7789   643.2386 </r>
       <r>    16.6923     8.9954   645.7346 </r>
       <r>    16.9698     7.7662   647.8895 </r>
       <r>    17.2472    -0.0270   647.8820 </r>
       <r>    17.5247     0.4301   648.0014 </r>
       <r>    17.8022    -0.0034   648.0004 </r>
       <r>    18.0797    -0.0015   648.0000 </r>
       <r>    18.3572    -0.0000   648.0000 </r>
       <r>    18.6346    -0.0000   648.0000 </r>
       <r>    18.9121     0.0000   648.0000 </r>
       <r>    19.1896     0.0000   648.0000 </r>
       <r>    19.4671     0.0000   648.0000 </r>
       <r>    19.7445     0.0000   648.0000 </r>
       <r>    20.0220     0.0000   648.0000 </r>
       <r>    20.2995     0.0000   648.0000 </r>
       <r>    20.5770     0.0000   648.0000 </r>
       <r>    20.8545     0.0000   648.0000 </r>
       <r>    21.1319     0.0000   648.0000 </r>
      </set>
     </set>
    </array>
   </total>
  </dos>
 </calculation>
 <structure name="finalpos" >
  <crystal>
   <varray name="basis" >
    <v>       0.00000000       7.57875000       7.57875000 </v>
    <v>       7.57875000       0.00000000       7.57875000 </v>
    <v>       7.57875000       7.57875000       0.00000000 </v>
   </varray>
   <i name="volume">    870.60817206 </i>
   <varray name="rec_basis" >
    <v>      -0.06597394       0.06597394       0.06597394 </v>
    <v>       0.06597394      -0.06597394       0.06597394 </v>
    <v>       0.06597394       0.06597394      -0.06597394 </v>
   </varray>
  </crystal>
  <varray name="positions" >
   <v>       0.00098961      -0.00098961      -0.00098961 </v>
   <v>       0.00000000       0.00000000       0.25000000 </v>
   <v>       0.00000000       0.00000000       0.50000000 </v>
   <v>       0.00000000       0.00000000       0.75000000 </v>
   <v>       0.00000000       0.25000000       0.00000000 </v>
   <v>       0.00000000       0.25000000       0.25000000 </v>
   <v>       0.00000000       0.25000000       0.50000000 </v>
   <v>       0.00000000       0.25000000       0.75000000 </v>
   <v>       0.00000000       0.50000000       0.00000000 </v>
   <v>       0.00000000       0.50000000       0.25000000 </v>
   <v>       0.00000000       0.50000000       0.50000000 </v>
   <v>       0.00000000       0.50000000       0.75000000 </v>
   <v>       0.00000000       0.75000000       0.00000000 </v>
   <v>       0.00000000       0.75000000       0.25000000 </v>
   <v>       0.00000000       0.75000000       0.50000000 </v>
   <v>       0.00000000       0.75000000       0.75000000 </v>
   <v>       0.25000000       0.00000000       0.00000000 </v>
   <v>       0.25000000       0.00000000       0.25000000 </v>
   <v>       0.25000000       0.00000000       0.50000000 </v>
   <v>       0.25000000       0.00000000       0.75000000 </v>
   <v>       0.25000000       0.25000000       0.00000000 </v>
   <v>       0.25000000       0.25000000       0.25000000 </v>
   <v>       0.25000000       0.25000000       0.50000000 </v>
   <v>       0.25000000       0.25000000       0.75000000 </v>
   <v>       0.25000000       0.50000000       0.00000000 </v>
   <v>       0.25000000       0.50000000       0.25000000 </v>
   <v>       0.25000000       0.50000000       0.50000000 </v>
   <v>       0.25000000       0.50000000       0.75000000 </v>
   <v>       0.25000000       0.75000000       0.00000000 </v>
   <v>       0.25000000       0.75000000       0.25000000 </v>
   <v>       0.25000000       0.75000000       0.50000000 </v>
   <v>       0.25000000       0.75000000       0.75000000 </v>
   <v>       0.50000000       0.00000000       0.00000000 </v>
   <v>       0.50000000       0.00000000       0.25000000 </v>
   <v>       0.50000000       0.00000000       0.50000000 </v>
   <v>       0.50000000       0.00000000       0.75000000 </v>
   <v>       0.50000000       0.25000000       0.00000000 </v>
   <v>       0.50000000       0.25000000       0.25000000 </v>
   <v>       0.50000000       0.25000000       0.50000000 </v>
   <v>       0.50000000       0.25000000       0.75000000 </v>
   <v>       0.50000000       0.50000000       0.00000000 </v>
   <v>       0.50000000       0.50000000       0.25000000 </v>
   <v>       0.50000000       0.50000000       0.50000000 </v>
   <v>       0.50000000       0.50000000       0.75000000 </v>
   <v>       0.50000000       0.75000000       0.00000000 </v>
   <v>       0.50000000       0.75000000       0.25000000 </v>
   <v>       0.50000000       0.75000000       0.50000000 </v>
   <v>       0.50000000       0.75000000       0.75000000 </v>
   <v>       0.75000000       0.00000000       0.00000000 </v>
   <v>       0.75000000       0.00000000       0.25000000 </v>
   <v>       0.75000000       0.00000000       0.50000000 </v>
   <v>       0.75000000       0.00000000       0.75000000 </v>
   <v>       0.75000000       0.25000000       0.00000000 </v>
   <v>       0.75000000       0.25000000       0.25000000 </v>
   <v>       0.75000000       0.25000000       0.50000000 </v>
   <v>       0.75000000       0.25000000       0.75000000 </v>
   <v>       0.75000000       0.50000000       0.00000000 </v>
   <v>       0.75000000       0.50000000       0.25000000 </v>
   <v>       0.75000000       0.50000000       0.50000000 </v>
   <v>       0.75000000       0.50000000       0.75000000 </v>
   <v>       0.75000000       0.75000000       0.00000000 </v>
   <v>       0.75000000       0.75000000       0.25000000 </v>
   <v>       0.75000000       0.75000000       0.50000000 </v>
   <v>       0.75000000       0.75000000       0.75000000 </v>
  </varray>
 </structure>
</modeling>
