       N       E                     dE             d eps       ncg     rms          rms(c)
DAV:   1     0.502326292193E+04    0.50233E+04   -0.15657E+05 66904   0.163E+03
DAV:   2     0.216510808054E+03   -0.48068E+04   -0.44554E+04 66856   0.559E+02
DAV:   3    -0.344363227687E+03   -0.56087E+03   -0.53442E+03 71464   0.201E+02
DAV:   4    -0.405697846177E+03   -0.61335E+02   -0.60688E+02109744   0.529E+01
DAV:   5    -0.412041675220E+03   -0.63438E+01   -0.63198E+01118976   0.192E+01    0.981E+01
DAV:   6    -0.325006526880E+03    0.87035E+02   -0.34208E+02 94656   0.849E+01    0.671E+01
DAV:   7    -0.369156541020E+03   -0.44150E+02   -0.29642E+02 94392   0.898E+01    0.497E+01
DAV:   8    -0.355021725925E+03    0.14135E+02   -0.66342E+01 94984   0.356E+01    0.273E+01
DAV:   9    -0.347144312938E+03    0.78774E+01   -0.90878E+00100616   0.152E+01    0.187E+01
DAV:  10    -0.345321213852E+03    0.18231E+01   -0.57508E+00 95048   0.127E+01    0.154E+01
DAV:  11    -0.343788712632E+03    0.15325E+01   -0.74369E+00 92312   0.145E+01    0.119E+01
DAV:  12    -0.344347082207E+03   -0.55837E+00   -0.53821E+00 91808   0.991E+00    0.157E+01
DAV:  13    -0.343946938222E+03    0.40014E+00   -0.49071E+00 92728   0.574E+00    0.689E+00
DAV:  14    -0.343891098555E+03    0.55840E-01   -0.66145E-01 94232   0.509E+00    0.450E+00
DAV:  15    -0.344072093465E+03   -0.18099E+00   -0.54305E-01 92536   0.336E+00    0.485E+00
DAV:  16    -0.344234126363E+03   -0.16203E+00   -0.47829E-01 92544   0.253E+00    0.449E+00
DAV:  17    -0.344276592643E+03   -0.42466E-01   -0.27539E-01 88680   0.175E+00    0.291E+00
DAV:  18    -0.344345790059E+03   -0.69197E-01   -0.20400E-01 91120   0.227E+00    0.226E+00
DAV:  19    -0.344381240281E+03   -0.35450E-01   -0.90856E-02 87832   0.168E+00    0.182E+00
DAV:  20    -0.344421101406E+03   -0.39861E-01   -0.67512E-02 87464   0.126E+00    0.174E+00
DAV:  21    -0.344465026905E+03   -0.43925E-01   -0.55817E-02 88720   0.116E+00    0.191E+00
DAV:  22    -0.344482359130E+03   -0.17332E-01   -0.80901E-02 87248   0.139E+00    0.862E-01
DAV:  23    -0.344494539245E+03   -0.12180E-01   -0.61244E-02 88040   0.734E-01    0.910E-01
DAV:  24    -0.344496137507E+03   -0.15983E-02   -0.12294E-02 88552   0.483E-01    0.572E-01
DAV:  25    -0.344497514515E+03   -0.13770E-02   -0.38817E-03 87368   0.409E-01    0.383E-01
DAV:  26    -0.344498874012E+03   -0.13595E-02   -0.34879E-03 89104   0.260E-01    0.183E-01
DAV:  27    -0.344500097089E+03   -0.12231E-02   -0.37862E-03 89496   0.174E-01    0.235E-01
DAV:  28    -0.344500366727E+03   -0.26964E-03   -0.81623E-04 87216   0.119E-01    0.156E-01
DAV:  29    -0.344500647255E+03   -0.28053E-03   -0.36422E-04 90912   0.839E-02    0.120E-01
DAV:  30    -0.344500970534E+03   -0.32328E-03   -0.59115E-04 90064   0.104E-01    0.745E-02
DAV:  31    -0.344501180761E+03   -0.21023E-03   -0.40030E-04 87504   0.818E-02    0.567E-02
DAV:  32    -0.344501344182E+03   -0.16342E-03   -0.31850E-04 87856   0.732E-02    0.765E-02
DAV:  33    -0.344501427798E+03   -0.83616E-04   -0.20720E-04 85344   0.611E-02    0.567E-02
DAV:  34    -0.344501472788E+03   -0.44990E-04   -0.15011E-04 88416   0.424E-02    0.353E-02
DAV:  35    -0.344501504490E+03   -0.31702E-04   -0.11237E-04 86384   0.338E-02    0.309E-02
DAV:  36    -0.344501528774E+03   -0.24283E-04   -0.42199E-05 89664   0.233E-02    0.215E-02
DAV:  37    -0.344501544946E+03   -0.16173E-04   -0.35701E-05 84104   0.186E-02    0.168E-02
DAV:  38    -0.344501560987E+03   -0.16041E-04   -0.31686E-05 86880   0.237E-02    0.113E-02
DAV:  39    -0.344501571625E+03   -0.10638E-04   -0.36562E-05 85184   0.225E-02    0.774E-03
DAV:  40    -0.344501576183E+03   -0.45575E-05   -0.17791E-05 86448   0.131E-02    0.777E-03
DAV:  41    -0.344501577604E+03   -0.14213E-05   -0.41112E-06 61160   0.666E-03    0.429E-03
DAV:  42    -0.344501578511E+03   -0.90697E-06   -0.30221E-06 63152   0.690E-03    0.289E-03
DAV:  43    -0.344501578881E+03   -0.37022E-06   -0.22289E-06 61064   0.476E-03
   1 F= -.34450158E+03 E0= -.34450030E+03  d E =-.344502E+03  mag=     9.0288
       N       E                     dE             d eps       ncg     rms          rms(c)
DAV:   1    -0.259328137611E+03    0.85173E+02   -0.28958E+03 74360   0.300E+02    0.187E+01
DAV:   2    -0.341605213575E+03   -0.82277E+02   -0.84612E+02 75240   0.796E+01    0.266E+01
DAV:   3    -0.342117034728E+03   -0.51182E+00   -0.57284E+01 93536   0.321E+01    0.133E+01
DAV:   4    -0.340433284622E+03    0.16838E+01   -0.43346E+00100320   0.998E+00    0.787E+00
DAV:   5    -0.339832871887E+03    0.60041E+00   -0.11824E+00 97584   0.743E+00    0.548E+00
DAV:   6    -0.339996348156E+03   -0.16348E+00   -0.23664E+00100160   0.523E+00    0.619E+00
DAV:   7    -0.340179411445E+03   -0.18306E+00   -0.57903E-01 97064   0.291E+00    0.436E+00
DAV:   8    -0.340216283331E+03   -0.36872E-01   -0.31673E-01 94896   0.340E+00    0.365E+00
DAV:   9    -0.340207113529E+03    0.91698E-02   -0.26432E-01 96536   0.243E+00    0.229E+00
