 vasp.5.4.1 05Feb16 (build Oct 12 2016 17:31:35) complex                        
  
 executed on           IFC91_ompi date 2020.09.06  09:38:17
 running on    1 total cores
 distrk:  each k-point on    1 cores,    1 groups
 distr:  one band on NCORES_PER_BAND=   1 cores,    1 groups


--------------------------------------------------------------------------------------------------------


 INCAR:
 POTCAR:    PAW Li_sv 10Sep2004                   
 POTCAR:   PAW V_sv 07Sep2000                     
 POTCAR:   PAW O 31May2000                        
 POTCAR:    PAW Li_sv 10Sep2004                   
   VRHFIN =Li: 1s2s                                                             
   LEXCH  = CA                                                                  
   EATOM  =   199.5738 eV,   14.6683 Ry                                         
                                                                                
   TITEL  = PAW Li_sv 10Sep2004                                                 
   LULTRA =        F    use ultrasoft PP ?                                      
   IUNSCR =        0    unscreen: 0-lin 1-nonlin 2-no                           
   RPACOR =     .000    partial core radius                                     
   POMASS =    7.010; ZVAL   =    3.000    mass and valenz                      
   RCORE  =    1.700    outmost cutoff radius                                   
   RWIGS  =    2.050; RWIGS  =    1.085    wigner-seitz radius (au A)           
   ENMAX  =  498.387; ENMIN  =  373.790 eV                                      
   ICORE  =        2    local potential                                         
   LCOR   =        T    correct aug charges                                     
   LPAW   =        T    paw PP                                                  
   EAUG   =  628.945                                                            
   RMAX   =    2.065    core radius for proj-oper                               
   RAUG   =    1.300    factor for augmentation sphere                          
   RDEP   =    1.728    radius for radial grids                                 
   QCUT   =   -6.052; QGAM   =   12.105    optimization parameters              
                                                                                
   Description                                                                  
     l     E      TYP  RCUT    TYP  RCUT                                        
     0   .000     23  1.400                                                     
     0   .000     23  1.700                                                     
     0   .000     23  1.400                                                     
     0   .000     23  1.700                                                     
     1   .000     23  1.400                                                     
     2   .000     23  1.400                                                     
  local pseudopotential read in
  atomic valenz-charges read in
  non local Contribution for L=           0  read in
    real space projection operators read in
  non local Contribution for L=           0  read in
    real space projection operators read in
  non local Contribution for L=           1  read in
    real space projection operators read in
    PAW grid and wavefunctions read in
 
   number of l-projection  operators is LMAX  =           3
   number of lm-projection operators is LMMAX =           5
 
 POTCAR:   PAW V_sv 07Sep2000                     
   VRHFIN =V: 3s3p4s3d                                                          
   LEXCH  = CA                                                                  
   EATOM  =  1952.9739 eV,  143.5395 Ry                                         
                                                                                
   TITEL  = PAW V_sv 07Sep2000                                                  
   LULTRA =        F    use ultrasoft PP ?                                      
   IUNSCR =        1    unscreen: 0-lin 1-nonlin 2-no                           
   RPACOR =    2.000    partial core radius                                     
   POMASS =   50.941; ZVAL   =   13.000    mass and valenz                      
   RCORE  =    2.300    outmost cutoff radius                                   
   RWIGS  =    2.300; RWIGS  =    1.217    wigner-seitz radius (au A)           
   ENMAX  =  263.722; ENMIN  =  197.791 eV                                      
   RCLOC  =    1.779    cutoff for local pot                                    
   LCOR   =        T    correct aug charges                                     
   LPAW   =        T    paw PP                                                  
   EAUG   =  526.568                                                            
   DEXC   =     .000                                                            
   RMAX   =    2.839    core radius for proj-oper                               
   RAUG   =    1.300    factor for augmentation sphere                          
   RDEP   =    2.430    radius for radial grids                                 
   QCUT   =   -4.403; QGAM   =    8.805    optimization parameters              
                                                                                
   Description                                                                  
     l     E      TYP  RCUT    TYP  RCUT                                        
     0   .000     23  1.800                                                     
     0   .000     23  2.300                                                     
     0   .000     23  1.800                                                     
     0   .000     23  2.300                                                     
     1   .000     23  2.000                                                     
     1   .400     23  2.000                                                     
     2   .000     23  2.300                                                     
     2   .000     23  2.300                                                     
     3   .000      7   .000                                                     
  local pseudopotential read in
  partial core-charges read in
  atomic valenz-charges read in
  non local Contribution for L=           0  read in
    real space projection operators read in
  non local Contribution for L=           0  read in
    real space projection operators read in
  non local Contribution for L=           1  read in
    real space projection operators read in
  non local Contribution for L=           1  read in
    real space projection operators read in
  non local Contribution for L=           2  read in
    real space projection operators read in
  non local Contribution for L=           2  read in
    real space projection operators read in
    PAW grid and wavefunctions read in
 
   number of l-projection  operators is LMAX  =           6
   number of lm-projection operators is LMMAX =          18
 
 POTCAR:   PAW O 31May2000                        
   VRHFIN =O: s2p4                                                              
   LEXCH  = CA                                                                  
   EATOM  =   431.4447 eV,   31.7103 Ry                                         
                                                                                
   TITEL  = PAW O 31May2000                                                     
   LULTRA =        F    use ultrasoft PP ?                                      
   IUNSCR =        0    unscreen: 0-lin 1-nonlin 2-no                           
   RPACOR =     .000    partial core radius                                     
   POMASS =   16.000; ZVAL   =    6.000    mass and valenz                      
   RCORE  =    1.520    outmost cutoff radius                                   
   RWIGS  =    1.550; RWIGS  =     .820    wigner-seitz radius (au A)           
   ENMAX  =  400.000; ENMIN  =  300.000 eV                                      
   ICORE  =        2    local potential                                         
   LCOR   =        T    correct aug charges                                     
   LPAW   =        T    paw PP                                                  
   EAUG   =  605.392                                                            
   DEXC   =     .000                                                            
   RMAX   =    2.265    core radius for proj-oper                               
   RAUG   =    1.300    factor for augmentation sphere                          
   RDEP   =    1.550    radius for radial grids                                 
   QCUT   =   -5.518; QGAM   =   11.037    optimization parameters              
                                                                                
   Description                                                                  
     l     E      TYP  RCUT    TYP  RCUT                                        
     0   .000     23  1.200                                                     
     0  -.700     23  1.200                                                     
     1   .000     23  1.520                                                     
     1   .600     23  1.520                                                     
     2   .000      7  1.500                                                     
  local pseudopotential read in
  atomic valenz-charges read in
  non local Contribution for L=           0  read in
    real space projection operators read in
  non local Contribution for L=           0  read in
    real space projection operators read in
  non local Contribution for L=           1  read in
    real space projection operators read in
  non local Contribution for L=           1  read in
    real space projection operators read in
    PAW grid and wavefunctions read in
 
   number of l-projection  operators is LMAX  =           4
   number of lm-projection operators is LMMAX =           8
 
 Optimization of the real space projectors (new method)

 maximal supplied QI-value         = 22.11
 optimisation between [QCUT,QGAM] = [ 11.28, 22.77] = [ 35.61,145.23] Ry 
 Optimized for a Real-space Cutoff    1.10 Angstroem

   l    n(q)    QCUT    max X(q) W(low)/X(q) W(high)/X(q)  e(spline) 
   0      7    11.276     5.152    0.18E-04    0.26E-04    0.10E-07
   0      7    11.276    10.025    0.10E-03    0.13E-03    0.35E-07
   1      7    11.276     5.406    0.17E-03    0.33E-03    0.72E-07
 Optimization of the real space projectors (new method)

 maximal supplied QI-value         = 16.25
 optimisation between [QCUT,QGAM] = [ 11.38, 22.75] = [ 36.24,144.96] Ry 
 Optimized for a Real-space Cutoff    1.52 Angstroem

   l    n(q)    QCUT    max X(q) W(low)/X(q) W(high)/X(q)  e(spline) 
   0     10    11.376     4.356    0.93E-05    0.64E-06    0.14E-07
   0     10    11.376    20.873    0.36E-04    0.59E-05    0.41E-07
   1     10    11.376     3.434    0.54E-06    0.38E-05    0.35E-07
   1     10    11.376     4.643    0.38E-04    0.39E-04    0.16E-06
   2      9    11.376     3.925    0.21E-04    0.11E-04    0.52E-07
   2      9    11.376    38.667    0.21E-03    0.72E-04    0.25E-06
 Optimization of the real space projectors (new method)

 maximal supplied QI-value         = 24.76
 optimisation between [QCUT,QGAM] = [ 11.39, 22.77] = [ 36.31,145.25] Ry 
 Optimized for a Real-space Cutoff    1.04 Angstroem

   l    n(q)    QCUT    max X(q) W(low)/X(q) W(high)/X(q)  e(spline) 
   0      7    11.387     4.112    0.52E-04    0.15E-03    0.19E-07
   0      7    11.387     8.789    0.17E-03    0.92E-03    0.18E-06
   1      6    11.387     2.496    0.17E-03    0.13E-03    0.19E-07
   1      6    11.387     3.859    0.22E-03    0.42E-03    0.16E-06
  PAW Li_sv 10Sep2004                   :
 energy of atom  1       EATOM= -199.5738
 kinetic energy error for atom=    0.0148 (will be added to EATOM!!)
 PAW V_sv 07Sep2000                     :
 energy of atom  2       EATOM=-1952.9739
 kinetic energy error for atom=    0.0070 (will be added to EATOM!!)
 PAW O 31May2000                        :
 energy of atom  3       EATOM= -431.4447
 kinetic energy error for atom=    0.0221 (will be added to EATOM!!)
 
 
 POSCAR: Li15 V10 O25                            
  positions in direct lattice
  velocities in cartesian coordinates
 exchange correlation table for  LEXCH =        2
   RHO(1)=    0.500       N(1)  =     2000
   RHO(2)=  100.500       N(2)  =     4000
 


--------------------------------------------------------------------------------------------------------


 ion  position               nearest neighbor table
   1  0.040  0.920  0.720-  30 1.88  41 1.88  33 1.88  29 1.88  49 1.88  38 1.88  25 2.66  22 2.66
                            21 2.66  17 2.66  16 2.66
   2  0.120  0.760  0.160-  35 1.88  37 1.88  32 1.88  48 1.88  34 1.88  31 1.88  23 2.66  18 2.66
                            16 2.66  20 2.66
   3  0.160  0.680  0.880-  35 1.88  32 1.88  38 1.88  26 1.88  45 1.88  49 1.88  23 2.66  17 2.66
                            22 2.66
   4  0.280  0.440  0.040-  45 1.88  29 1.88  28 1.88  42 1.88  35 1.88  48 1.88  23 2.66  20 2.66
                            18 2.66
   5  0.320  0.360  0.760-  46 1.88  30 1.88  43 1.88  45 1.88  26 1.88  29 1.88  25 2.66  17 2.66
                            21 2.66  22 2.66  23 2.66  19 2.66
   6  0.440  0.120  0.920-  32 1.88  40 1.88  42 1.88  29 1.88  49 1.88  43 1.88  20 2.66  21 2.66
                            22 2.66  23 2.66
   7  0.520  0.960  0.360-  39 1.88  48 1.88  36 1.88  50 1.88  31 1.88  44 1.88  24 2.66  18 2.66
                            20 2.66  19 2.66  25 2.66  16 2.66  21 2.66
   8  0.560  0.880  0.080-  40 1.88  32 1.88  45 1.88  37 1.88  39 1.88  48 1.88  23 2.66  22 2.66
                            20 2.66
   9  0.640  0.720  0.520-  41 1.88  46 1.88  33 1.88  47 1.88  36 1.88  50 1.88  22 2.66  19 2.66
                            17 2.66  25 2.66  24 2.66  18 2.66  16 2.66  21 2.66
  10  0.680  0.640  0.240-  47 1.88  36 1.88  42 1.88  34 1.88  48 1.88  37 1.88  16 2.66  24 2.66
                            18 2.66  20 2.66  23 2.66
  11  0.760  0.480  0.680-  43 1.88  44 1.88  33 1.88  26 1.88  46 1.88  38 1.88  22 2.66  21 2.66
                            24 2.66  25 2.66  19 2.66  23 2.66  17 2.66
  12  0.840  0.320  0.120-  35 1.88  40 1.88  28 1.88  34 1.88  42 1.88  39 1.88  23 2.66  18 2.66
                            24 2.66  20 2.66
  13  0.880  0.240  0.840-  35 1.88  29 1.88  40 1.88  43 1.88  26 1.88  41 1.88  23 2.66  25 2.66
                            22 2.66  21 2.66
  14  0.960  0.080  0.280-  36 1.88  31 1.88  27 1.88  37 1.88  39 1.88  28 1.88  16 2.66  19 2.66
                            20 2.66  24 2.66  25 2.66  18 2.66
  15  0.000  0.000  0.000-  29 1.88  37 1.88  28 1.88  38 1.88  32 1.88  40 1.88  23 2.66  22 2.66
                            20 2.66
  16  0.080  0.840  0.440-  31 1.88  36 1.88  34 1.88  30 1.88  50 1.88  33 1.88  14 2.66  25 2.66
                            10 2.66  19 2.66  18 2.66   9 2.66  21 2.66   1 2.66   2 2.66   7 2.66
  17  0.200  0.600  0.600-  49 1.88  46 1.88  26 1.88  33 1.88  27 1.88  50 1.88  22 2.66  21 2.66
                             5 2.66   9 2.66  19 2.66  18 2.66   1 2.66   3 2.66  11 2.66  25 2.66
  18  0.240  0.520  0.320-  48 1.88  50 1.88  27 1.88  34 1.88  47 1.88  28 1.88  19 2.66  10 2.66
                            20 2.66   7 2.66   4 2.66  12 2.66  16 2.66  17 2.66   2 2.66   9 2.66
  19  0.360  0.280  0.480-  31 1.88  47 1.88  46 1.88  27 1.88  30 1.88  44 1.88  20 2.66  14 2.66
                            18 2.66   9 2.66  24 2.66  16 2.66  17 2.66  11 2.66  25 2.66   7 2.66
  20  0.400  0.200  0.200-  31 1.88  47 1.88  28 1.88  39 1.88  42 1.88  32 1.88  19 2.66  24 2.66
                            14 2.66  18 2.66  10 2.66   4 2.66   7 2.66  15 2.66   6 2.66   2 2.66
  21  0.480  0.040  0.640-  49 1.88  43 1.88  30 1.88  44 1.88  41 1.88  50 1.88  17 2.66   5 2.66
                             1 2.66  11 2.66  22 2.66  16 2.66   9 2.66   6 2.66   7 2.66  25 2.66
  22  0.600  0.800  0.800-  41 1.88  46 1.88  38 1.88  49 1.88  40 1.88  45 1.88   9 2.66  17 2.66
                            11 2.66   1 2.66   5 2.66  23 2.66  21 2.66  15 2.66   8 2.66  13 2.66
  23  0.720  0.560  0.960-  42 1.88  37 1.88  38 1.88  45 1.88  35 1.88  43 1.88   2 2.66   3 2.66
                             4 2.66   8 2.66  15 2.66  22 2.66  12 2.66  10 2.66  11 2.66   5 2.66
  24  0.800  0.400  0.400-  39 1.88  47 1.88  34 1.88  27 1.88  33 1.88  44 1.88  20 2.66  10 2.66
                             7 2.66  19 2.66   9 2.66  11 2.66  14 2.66  12 2.66  18 2.66  16 2.66
  25  0.920  0.160  0.560-  41 1.88  30 1.88  26 1.88  36 1.88  44 1.88  27 1.88   1 2.66  16 2.66
                             5 2.66   9 2.66  13 2.66  14 2.66   7 2.66  19 2.66  11 2.66  21 2.66
  26  0.040  0.420  0.720-  17 1.88  11 1.88  25 1.88   5 1.88   3 1.88  13 1.88
  27  0.080  0.340  0.440-  18 1.88  24 1.88  14 1.88  19 1.88  17 1.88  25 1.88
  28  0.120  0.260  0.160-  15 1.88  12 1.88   4 1.88  20 1.88  14 1.88  18 1.88
  29  0.160  0.180  0.880-  15 1.88   4 1.88  13 1.88   1 1.88   6 1.88   5 1.88
  30  0.200  0.100  0.600-   5 1.88  21 1.88   1 1.88  25 1.88  16 1.88  19 1.88
  31  0.240  0.020  0.320-  20 1.88  19 1.88  16 1.88  14 1.88   7 1.88   2 1.88
  32  0.280  0.940  0.040-   6 1.88   3 1.88   2 1.88   8 1.88  15 1.88  20 1.88
  33  0.920  0.660  0.560-  11 1.88  17 1.88   1 1.88   9 1.88  24 1.88  16 1.88
  34  0.960  0.580  0.280-  24 1.88  18 1.88  16 1.88  12 1.88  10 1.88   2 1.88
  35  0.000  0.500  0.000-   3 1.88  12 1.88   2 1.88  13 1.88   4 1.88  23 1.88
  36  0.800  0.900  0.400-  10 1.88   7 1.88  14 1.88  16 1.88  25 1.88   9 1.88
  37  0.840  0.820  0.120-  15 1.88  23 1.88   2 1.88   8 1.88  14 1.88  10 1.88
  38  0.880  0.740  0.840-  15 1.88   3 1.88  23 1.88  22 1.88   1 1.88  11 1.88
  39  0.680  0.140  0.240-   7 1.88  24 1.88  14 1.88  20 1.88   8 1.88  12 1.88
  40  0.720  0.060  0.960-   8 1.88  12 1.88  13 1.88   6 1.88  15 1.88  22 1.88
  41  0.760  0.980  0.680-  22 1.88   9 1.88  25 1.88   1 1.88  21 1.88  13 1.88
  42  0.560  0.380  0.080-  23 1.88   4 1.88   6 1.88  12 1.88  10 1.88  20 1.88
  43  0.600  0.300  0.800-  11 1.88  21 1.88  13 1.88   5 1.88   6 1.88  23 1.88
  44  0.640  0.220  0.520-  11 1.88  21 1.88   7 1.88  25 1.88  24 1.88  19 1.88
  45  0.440  0.620  0.920-   4 1.88  23 1.88   8 1.88   3 1.88   5 1.88  22 1.88
  46  0.480  0.540  0.640-   5 1.88  22 1.88  17 1.88   9 1.88  19 1.88  11 1.88
  47  0.520  0.460  0.360-  10 1.88  20 1.88  24 1.88  19 1.88  18 1.88   9 1.88
  48  0.400  0.700  0.200-  18 1.88   7 1.88   2 1.88  10 1.88   4 1.88   8 1.88
  49  0.320  0.860  0.760-  21 1.88  17 1.88   1 1.88   6 1.88  22 1.88   3 1.88
  50  0.360  0.780  0.480-  18 1.88   7 1.88  16 1.88  21 1.88  17 1.88   9 1.88
 
  LATTYP: Found a triclinic cell.
 ALAT       =     5.9568547353
 B/A-ratio  =     1.7320508076
 C/A-ratio  =     1.7320508076
 COS(alpha) =     0.0333333333
 COS(beta)  =     0.2886751346
 COS(gamma) =     0.8082903769
  
  Lattice vectors:
  
 A1 = (  -1.8837228654,   0.0000000000,   5.6511685963)
 A2 = (   1.8837228654,  -3.7674457309,   9.4186143272)
 A3 = (   1.8837228654,   9.4186143272,   3.7674457309)


Analysis of symmetry for initial positions (statically):
=====================================================================
 Subroutine PRICEL returns:
 Original cell was already a primitive cell.
 

 Routine SETGRP: Setting up the symmetry group for a 
 triclinic supercell.


 Subroutine GETGRP returns: Found  1 space group operations
 (whereof  1 operations were pure point group operations)
 out of a pool of  2 trial point group operations.


The static configuration has the point symmetry C_1 .


Analysis of symmetry for dynamics (positions and initial velocities):
=====================================================================
 Subroutine PRICEL returns:
 Original cell was already a primitive cell.
 

 Routine SETGRP: Setting up the symmetry group for a 
 triclinic supercell.


 Subroutine GETGRP returns: Found  1 space group operations
 (whereof  1 operations were pure point group operations)
 out of a pool of  2 trial point group operations.


The dynamic configuration has the point symmetry C_1 .


Analysis of structural, dynamic, and magnetic symmetry:
=====================================================================
 Subroutine PRICEL returns:
 Original cell was already a primitive cell.
 

 Routine SETGRP: Setting up the symmetry group for a 
 triclinic supercell.


 Subroutine GETGRP returns: Found  1 space group operations
 (whereof  1 operations were pure point group operations)
 out of a pool of  2 trial point group operations.


The magnetic configuration has the point symmetry C_1 .


 Subroutine INISYM returns: Found  1 space group operations
 (whereof  1 operations are pure point group operations),
 and found     1 'primitive' translations

 
 
 KPOINTS: pymatgen v2020.8.3 with grid density = 8

Automatic generation of k-mesh.
Space group operators:
 irot       det(A)        alpha          n_x          n_y          n_z        tau_x        tau_y        tau_z
    1     1.000000     0.000001     1.000000     0.000000     0.000000     0.000000     0.000000     0.000000
 
 Subroutine IBZKPT returns following result:
 ===========================================
 
 Found     72 irreducible k-points:
 
 Following reciprocal coordinates:
            Coordinates               Weight
  0.083333  0.083333  0.125000      2.000000
  0.250000  0.083333  0.125000      2.000000
  0.416667  0.083333  0.125000      2.000000
 -0.416667  0.083333  0.125000      2.000000
 -0.250000  0.083333  0.125000      2.000000
 -0.083333  0.083333  0.125000      2.000000
  0.083333  0.250000  0.125000      2.000000
  0.250000  0.250000  0.125000      2.000000
  0.416667  0.250000  0.125000      2.000000
 -0.416667  0.250000  0.125000      2.000000
 -0.250000  0.250000  0.125000      2.000000
 -0.083333  0.250000  0.125000      2.000000
  0.083333  0.416667  0.125000      2.000000
  0.250000  0.416667  0.125000      2.000000
  0.416667  0.416667  0.125000      2.000000
 -0.416667  0.416667  0.125000      2.000000
 -0.250000  0.416667  0.125000      2.000000
 -0.083333  0.416667  0.125000      2.000000
  0.083333 -0.416667  0.125000      2.000000
  0.250000 -0.416667  0.125000      2.000000
  0.416667 -0.416667  0.125000      2.000000
 -0.416667 -0.416667  0.125000      2.000000
 -0.250000 -0.416667  0.125000      2.000000
 -0.083333 -0.416667  0.125000      2.000000
  0.083333 -0.250000  0.125000      2.000000
  0.250000 -0.250000  0.125000      2.000000
  0.416667 -0.250000  0.125000      2.000000
 -0.416667 -0.250000  0.125000      2.000000
 -0.250000 -0.250000  0.125000      2.000000
 -0.083333 -0.250000  0.125000      2.000000
  0.083333 -0.083333  0.125000      2.000000
  0.250000 -0.083333  0.125000      2.000000
  0.416667 -0.083333  0.125000      2.000000
 -0.416667 -0.083333  0.125000      2.000000
 -0.250000 -0.083333  0.125000      2.000000
 -0.083333 -0.083333  0.125000      2.000000
  0.083333  0.083333  0.375000      2.000000
  0.250000  0.083333  0.375000      2.000000
  0.416667  0.083333  0.375000      2.000000
 -0.416667  0.083333  0.375000      2.000000
 -0.250000  0.083333  0.375000      2.000000
 -0.083333  0.083333  0.375000      2.000000
  0.083333  0.250000  0.375000      2.000000
  0.250000  0.250000  0.375000      2.000000
  0.416667  0.250000  0.375000      2.000000
 -0.416667  0.250000  0.375000      2.000000
 -0.250000  0.250000  0.375000      2.000000
 -0.083333  0.250000  0.375000      2.000000
  0.083333  0.416667  0.375000      2.000000
  0.250000  0.416667  0.375000      2.000000
  0.416667  0.416667  0.375000      2.000000
 -0.416667  0.416667  0.375000      2.000000
 -0.250000  0.416667  0.375000      2.000000
 -0.083333  0.416667  0.375000      2.000000
  0.083333 -0.416667  0.375000      2.000000
  0.250000 -0.416667  0.375000      2.000000
  0.416667 -0.416667  0.375000      2.000000
 -0.416667 -0.416667  0.375000      2.000000
 -0.250000 -0.416667  0.375000      2.000000
 -0.083333 -0.416667  0.375000      2.000000
  0.083333 -0.250000  0.375000      2.000000
  0.250000 -0.250000  0.375000      2.000000
  0.416667 -0.250000  0.375000      2.000000
 -0.416667 -0.250000  0.375000      2.000000
 -0.250000 -0.250000  0.375000      2.000000
 -0.083333 -0.250000  0.375000      2.000000
  0.083333 -0.083333  0.375000      2.000000
  0.250000 -0.083333  0.375000      2.000000
  0.416667 -0.083333  0.375000      2.000000
 -0.416667 -0.083333  0.375000      2.000000
 -0.250000 -0.083333  0.375000      2.000000
 -0.083333 -0.083333  0.375000      2.000000
 
 Following cartesian coordinates:
            Coordinates               Weight
  0.006653 -0.025782 -0.011644      2.000000
  0.019960 -0.035763 -0.034931      2.000000
  0.033267 -0.045743 -0.058218      2.000000
 -0.033267  0.004158  0.058218      2.000000
 -0.019960 -0.005822  0.034931      2.000000
 -0.006653 -0.015802  0.011644      2.000000
  0.021624 -0.047406 -0.006653      2.000000
  0.034931 -0.057386 -0.029941      2.000000
  0.048238 -0.067367 -0.053228      2.000000
 -0.018297 -0.017465  0.063208      2.000000
 -0.004990 -0.027446  0.039921      2.000000
  0.008317 -0.037426  0.016634      2.000000
  0.036594 -0.069030 -0.001663      2.000000
  0.049901 -0.079010 -0.024951      2.000000
  0.063208 -0.088990 -0.048238      2.000000
 -0.003327 -0.039089  0.068198      2.000000
  0.009980 -0.049069  0.044911      2.000000
  0.023287 -0.059050  0.021624      2.000000
 -0.038258  0.039089 -0.026614      2.000000
 -0.024951  0.029109 -0.049901      2.000000
 -0.011644  0.019129 -0.073188      2.000000
 -0.078179  0.069030  0.043248      2.000000
 -0.064872  0.059050  0.019960      2.000000
 -0.051565  0.049069 -0.003327      2.000000
 -0.023287  0.017465 -0.021624      2.000000
 -0.009980  0.007485 -0.044911      2.000000
  0.003327 -0.002495 -0.068198      2.000000
 -0.063208  0.047406  0.048238      2.000000
 -0.049901  0.037426  0.024951      2.000000
 -0.036594  0.027446  0.001663      2.000000
 -0.008317 -0.004158 -0.016634      2.000000
  0.004990 -0.014139 -0.039921      2.000000
  0.018297 -0.024119 -0.063208      2.000000
 -0.048238  0.025782  0.053228      2.000000
 -0.034931  0.015802  0.029941      2.000000
 -0.021624  0.005822  0.006653      2.000000
 -0.008317 -0.045743 -0.016634      2.000000
  0.004990 -0.055723 -0.039921      2.000000
  0.018297 -0.065703 -0.063208      2.000000
 -0.048238 -0.015802  0.053228      2.000000
 -0.034931 -0.025782  0.029941      2.000000
 -0.021624 -0.035763  0.006653      2.000000
  0.006653 -0.067367 -0.011644      2.000000
  0.019960 -0.077347 -0.034931      2.000000
  0.033267 -0.087327 -0.058218      2.000000
 -0.033267 -0.037426  0.058218      2.000000
 -0.019960 -0.047406  0.034931      2.000000
 -0.006653 -0.057386  0.011644      2.000000
  0.021624 -0.088990 -0.006653      2.000000
  0.034931 -0.098971 -0.029941      2.000000
  0.048238 -0.108951 -0.053228      2.000000
 -0.018297 -0.059050  0.063208      2.000000
 -0.004990 -0.069030  0.039921      2.000000
  0.008317 -0.079010  0.016634      2.000000
 -0.053228  0.019129 -0.031604      2.000000
 -0.039921  0.009149 -0.054891      2.000000
 -0.026614 -0.000832 -0.078179      2.000000
 -0.093149  0.049069  0.038258      2.000000
 -0.079842  0.039089  0.014970      2.000000
 -0.066535  0.029109 -0.008317      2.000000
 -0.038258 -0.002495 -0.026614      2.000000
 -0.024951 -0.012475 -0.049901      2.000000
 -0.011644 -0.022456 -0.073188      2.000000
 -0.078179  0.027446  0.043248      2.000000
 -0.064872  0.017465  0.019960      2.000000
 -0.051565  0.007485 -0.003327      2.000000
 -0.023287 -0.024119 -0.021624      2.000000
 -0.009980 -0.034099 -0.044911      2.000000
  0.003327 -0.044079 -0.068198      2.000000
 -0.063208  0.005822  0.048238      2.000000
 -0.049901 -0.004158  0.024951      2.000000
 -0.036594 -0.014139  0.001663      2.000000
 


--------------------------------------------------------------------------------------------------------




 Dimension of arrays:
   k-points           NKPTS =     72   k-points in BZ     NKDIM =     72   number of bands    NBANDS=    232
   number of dos      NEDOS =    301   number of ions     NIONS =     50
   non local maximal  LDIM  =      6   non local SUM 2l+1 LMDIM =     18
   total plane-waves  NPLWV = 161280
   max r-space proj   IRMAX =   7163   max aug-charges    IRDMAX=  16649
   dimension x,y,z NGX =    48 NGY =   48 NGZ =   70
   dimension x,y,z NGXF=    96 NGYF=   96 NGZF=  140
   support grid    NGXF=    96 NGYF=   96 NGZF=  140
   ions per type =              15  10  25
 NGX,Y,Z   is equivalent  to a cutoff of  13.40, 12.23, 12.12 a.u.
 NGXF,Y,Z  is equivalent  to a cutoff of  26.79, 24.46, 24.23 a.u.


 I would recommend the setting:
   dimension x,y,z NGX =    43 NGY =   48 NGZ =   70
 SYSTEM =  unknown system                          
 POSCAR =  Li15 V10 O25                            

 Startparameter for this run:
   NWRITE =      2    write-flag & timer
   PREC   = accura    normal or accurate (medium, high low for compatibility)
   ISTART =      0    job   : 0-new  1-cont  2-samecut
   ICHARG =      2    charge: 1-file 2-atom 10-const
   ISPIN  =      2    spin polarized calculation?
   LNONCOLLINEAR =      F non collinear calculations
   LSORBIT =      F    spin-orbit coupling
   INIWAV =      1    electr: 0-lowe 1-rand  2-diag
   LASPH  =      F    aspherical Exc in radial PAW
   METAGGA=      F    non-selfconsistent MetaGGA calc.

 Electronic Relaxation 1
   ENCUT  =  498.4 eV  36.63 Ry    6.05 a.u.  10.84 11.88 17.48*2*pi/ulx,y,z
   ENINI  =  498.4     initial cutoff
   ENAUG  =  628.9 eV  augmentation charge cutoff
   NELM   =    100;   NELMIN=  2; NELMDL= -5     # of ELM steps 
   EDIFF  = 0.5E-06   stopping-criterion for ELM
   LREAL  =      T    real-space projection
   NLSPLINE    = F    spline interpolate recip. space projectors
   LCOMPAT=      F    compatible to vasp.4.4
   GGA_COMPAT  = T    GGA compatible to vasp.4.4-vasp.4.6
   LMAXPAW     = -100 max onsite density
   LMAXMIX     =    4 max onsite mixed and CHGCAR
   VOSKOWN=      0    Vosko Wilk Nusair interpolation
   ROPT   =   -0.00025  -0.00025  -0.00025
 Ionic relaxation
   EDIFFG = -.1E-02   stopping-criterion for IOM
   NSW    =     99    number of steps for IOM
   NBLOCK =      1;   KBLOCK =     99    inner block; outer block 
   IBRION =      1    ionic relax: 0-MD 1-quasi-New 2-CG
   NFREE  =      0    steps in history (QN), initial steepest desc. (CG)
   ISIF   =      4    stress and relaxation
   IWAVPR =     11    prediction:  0-non 1-charg 2-wave 3-comb
   ISYM   =      2    0-nonsym 1-usesym 2-fastsym
   LCORR  =      T    Harris-Foulkes like correction to forces

   POTIM  = 0.5000    time-step for ionic-motion
   TEIN   =    0.0    initial temperature
   TEBEG  =    0.0;   TEEND  =   0.0 temperature during run
   SMASS  =  -3.00    Nose mass-parameter (am)
   estimated Nose-frequenzy (Omega)   =  0.10E-29 period in steps =****** mass=  -0.811E-27a.u.
   SCALEE = 1.0000    scale energy and forces
   NPACO  =    256;   APACO  = 16.0  distance and # of slots for P.C.
   PSTRESS=    0.0 pullay stress

  Mass of Ions in am
   POMASS =   7.01 50.94 16.00
  Ionic Valenz
   ZVAL   =   3.00 13.00  6.00
  Atomic Wigner-Seitz radii
   RWIGS  =  -1.00 -1.00 -1.00
  virtual crystal weights 
   VCA    =   1.00  1.00  1.00
   NELECT =     325.0000    total number of electrons
   NUPDOWN=      -1.0000    fix difference up-down

 DOS related values:
   EMIN   =  10.00;   EMAX   =-10.00  energy-range for DOS
   EFERMI =   0.00
   ISMEAR =     1;   SIGMA  =   0.20  broadening in eV -4-tet -1-fermi 0-gaus

 Electronic relaxation 2 (details)
   IALGO  =     38    algorithm
   LDIAG  =      T    sub-space diagonalisation (order eigenvalues)
   LSUBROT=      F    optimize rotation matrix (better conditioning)
   TURBO    =      0    0=normal 1=particle mesh
   IRESTART =      0    0=no restart 2=restart with 2 vectors
   NREBOOT  =      0    no. of reboots
   NMIN     =      0    reboot dimension
   EREF     =   0.00    reference energy to select bands
   IMIX   =      4    mixing-type and parameters
     AMIX     =   0.40;   BMIX     =  1.00
     AMIX_MAG =   1.60;   BMIX_MAG =  1.00
     AMIN     =   0.10
     WC   =   100.;   INIMIX=   1;  MIXPRE=   1;  MAXMIX= -45

 Intra band minimization:
   WEIMIN = 0.0010     energy-eigenvalue tresh-hold
   EBREAK =  0.54E-09  absolut break condition
   DEPER  =   0.30     relativ break condition  

   TIME   =   0.40     timestep for ELM

  volume/ion in A,a.u.               =       6.68        45.11
  Fermi-wavevector in a.u.,A,eV,Ry     =   1.621918  3.064981 35.791738  2.630619
  Thomas-Fermi vector in A             =   2.715616
 
 Write flags
   LWAVE  =      F    write WAVECAR
   LCHARG =      F    write CHGCAR
   LVTOT  =      F    write LOCPOT, total local potential
   LVHAR  =      F    write LOCPOT, Hartree potential only
   LELF   =      F    write electronic localiz. function (ELF)
   LORBIT =     11    0 simple, 1 ext, 2 COOP (PROOUT)


 Dipole corrections
   LMONO  =      F    monopole corrections only (constant potential shift)
   LDIPOL =      F    correct potential (dipole corrections)
   IDIPOL =      0    1-x, 2-y, 3-z, 4-all directions 
   EPSILON=  1.0000000 bulk dielectric constant

 LDA+U is selected, type is set to LDAUTYPE =  2
   angular momentum for each species LDAUL =     0    2    0
   U (eV)           for each species LDAUU =   0.0  3.2  0.0
   J (eV)           for each species LDAUJ =   0.0  0.0  0.0
 Exchange correlation treatment:
   GGA     =    --    GGA type
   LEXCH   =     2    internal setting for exchange type
   VOSKOWN=      0    Vosko Wilk Nusair interpolation
   LHFCALC =     F    Hartree Fock is set to
   LHFONE  =     F    Hartree Fock one center treatment
   AEXX    =    0.0000 exact exchange contribution

 Linear response parameters
   LEPSILON=     F    determine dielectric tensor
   LRPA    =     F    only Hartree local field effects (RPA)
   LNABLA  =     F    use nabla operator in PAW spheres
   LVEL    =     F    velocity operator in full k-point grid
   LINTERFAST=   F  fast interpolation
   KINTER  =     0    interpolate to denser k-point grid
   CSHIFT  =0.1000    complex shift for real part using Kramers Kronig
   OMEGAMAX=  -1.0    maximum frequency
   DEG_THRESHOLD= 0.2000000E-02 threshold for treating states as degnerate
   RTIME   =    0.100 relaxation time in fs

 Orbital magnetization related:
   ORBITALMAG=     F  switch on orbital magnetization
   LCHIMAG   =     F  perturbation theory with respect to B field
   DQ        =  0.001000  dq finite difference perturbation B field



--------------------------------------------------------------------------------------------------------


 quasi-Newton-method for relaxation of ions
 charge density and potential will be updated during run
 spin polarized calculation
 Variant of blocked Davidson
 Davidson routine will perform the subspace rotation
 perform sub-space diagonalisation
    after iterative eigenvector-optimisation
 modified Broyden-mixing scheme, WC =      100.0
 initial mixing is a Kerker type mixing with AMIX =  0.4000 and BMIX =      1.0000
 Hartree-type preconditioning will be used
 using additional bands           69
 real space projection scheme for non local part
 use partial core corrections
 calculate Harris-corrections to forces 
   (improved forces if not selfconsistent)
 use of overlap-Matrix (Vanderbilt PP)
 Methfessel and Paxton  Order N= 1 SIGMA  =   0.20


--------------------------------------------------------------------------------------------------------


  energy-cutoff  :      498.39
  volume of cell :      334.21
      direct lattice vectors                 reciprocal lattice vectors
     1.883722865  0.000000000 -5.651168596     0.084938184 -0.063703638 -0.148641823
     3.767445731 -3.767445731  3.767445731     0.095555457 -0.138024550  0.031851819
    -7.534891462 -5.651168596 -1.883722865    -0.063703638 -0.084938184 -0.021234546

  length of vectors
     5.956854735  6.525407421  9.605139649     0.182666472  0.170868839  0.108275365


 
 k-points in units of 2pi/SCALE and weight: pymatgen v2020.8.3 with grid density = 8
   0.00665349 -0.02578228 -0.01164361       0.014
   0.01996047 -0.03576251 -0.03493083       0.014
   0.03326746 -0.04574275 -0.05821805       0.014
  -0.03326746  0.00415843  0.05821805       0.014
  -0.01996047 -0.00582180  0.03493083       0.014
  -0.00665349 -0.01580204  0.01164361       0.014
   0.02162385 -0.04740612 -0.00665349       0.014
   0.03493083 -0.05738636 -0.02994071       0.014
   0.04823781 -0.06736660 -0.05322793       0.014
  -0.01829710 -0.01746541  0.06320817       0.014
  -0.00499012 -0.02744565  0.03992095       0.014
   0.00831686 -0.03742589  0.01663373       0.014
   0.03659420 -0.06902997 -0.00166337       0.014
   0.04990118 -0.07901021 -0.02495059       0.014
   0.06320817 -0.08899044 -0.04823781       0.014
  -0.00332675 -0.03908926  0.06819828       0.014
   0.00998024 -0.04906950  0.04491106       0.014
   0.02328722 -0.05904973  0.02162385       0.014
  -0.03825757  0.03908926 -0.02661396       0.014
  -0.02495059  0.02910902 -0.04990118       0.014
  -0.01164361  0.01912879 -0.07318840       0.014
  -0.07817852  0.06902997  0.04324769       0.014
  -0.06487154  0.05904973  0.01996047       0.014
  -0.05156456  0.04906950 -0.00332675       0.014
  -0.02328722  0.01746541 -0.02162385       0.014
  -0.00998024  0.00748518 -0.04491106       0.014
   0.00332675 -0.00249506 -0.06819828       0.014
  -0.06320817  0.04740612  0.04823781       0.014
  -0.04990118  0.03742589  0.02495059       0.014
  -0.03659420  0.02744565  0.00166337       0.014
  -0.00831686 -0.00415843 -0.01663373       0.014
   0.00499012 -0.01413867 -0.03992095       0.014
   0.01829710 -0.02411891 -0.06320817       0.014
  -0.04823781  0.02578228  0.05322793       0.014
  -0.03493083  0.01580204  0.02994071       0.014
  -0.02162385  0.00582180  0.00665349       0.014
  -0.00831686 -0.04574275 -0.01663373       0.014
   0.00499012 -0.05572299 -0.03992095       0.014
   0.01829710 -0.06570322 -0.06320817       0.014
  -0.04823781 -0.01580204  0.05322793       0.014
  -0.03493083 -0.02578228  0.02994071       0.014
  -0.02162385 -0.03576251  0.00665349       0.014
   0.00665349 -0.06736660 -0.01164361       0.014
   0.01996047 -0.07734683 -0.03493083       0.014
   0.03326746 -0.08732707 -0.05821805       0.014
  -0.03326746 -0.03742589  0.05821805       0.014
  -0.01996047 -0.04740612  0.03493083       0.014
  -0.00665349 -0.05738636  0.01164361       0.014
   0.02162385 -0.08899044 -0.00665349       0.014
   0.03493083 -0.09897068 -0.02994071       0.014
   0.04823781 -0.10895092 -0.05322793       0.014
  -0.01829710 -0.05904973  0.06320817       0.014
  -0.00499012 -0.06902997  0.03992095       0.014
   0.00831686 -0.07901021  0.01663373       0.014
  -0.05322793  0.01912879 -0.03160408       0.014
  -0.03992095  0.00914855 -0.05489130       0.014
  -0.02661396 -0.00083169 -0.07817852       0.014
  -0.09314888  0.04906950  0.03825757       0.014
  -0.07984189  0.03908926  0.01497035       0.014
  -0.06653491  0.02910902 -0.00831686       0.014
  -0.03825757 -0.00249506 -0.02661396       0.014
  -0.02495059 -0.01247530 -0.04990118       0.014
  -0.01164361 -0.02245553 -0.07318840       0.014
  -0.07817852  0.02744565  0.04324769       0.014
  -0.06487154  0.01746541  0.01996047       0.014
  -0.05156456  0.00748518 -0.00332675       0.014
  -0.02328722 -0.02411891 -0.02162385       0.014
  -0.00998024 -0.03409914 -0.04491106       0.014
   0.00332675 -0.04407938 -0.06819828       0.014
  -0.06320817  0.00582180  0.04823781       0.014
  -0.04990118 -0.00415843  0.02495059       0.014
  -0.03659420 -0.01413867  0.00166337       0.014
 
 k-points in reciprocal lattice and weights: pymatgen v2020.8.3 with grid density = 8
   0.08333333  0.08333333  0.12500000       0.014
   0.25000000  0.08333333  0.12500000       0.014
   0.41666667  0.08333333  0.12500000       0.014
  -0.41666667  0.08333333  0.12500000       0.014
  -0.25000000  0.08333333  0.12500000       0.014
  -0.08333333  0.08333333  0.12500000       0.014
   0.08333333  0.25000000  0.12500000       0.014
   0.25000000  0.25000000  0.12500000       0.014
   0.41666667  0.25000000  0.12500000       0.014
  -0.41666667  0.25000000  0.12500000       0.014
  -0.25000000  0.25000000  0.12500000       0.014
  -0.08333333  0.25000000  0.12500000       0.014
   0.08333333  0.41666667  0.12500000       0.014
   0.25000000  0.41666667  0.12500000       0.014
   0.41666667  0.41666667  0.12500000       0.014
  -0.41666667  0.41666667  0.12500000       0.014
  -0.25000000  0.41666667  0.12500000       0.014
  -0.08333333  0.41666667  0.12500000       0.014
   0.08333333 -0.41666667  0.12500000       0.014
   0.25000000 -0.41666667  0.12500000       0.014
   0.41666667 -0.41666667  0.12500000       0.014
  -0.41666667 -0.41666667  0.12500000       0.014
  -0.25000000 -0.41666667  0.12500000       0.014
  -0.08333333 -0.41666667  0.12500000       0.014
   0.08333333 -0.25000000  0.12500000       0.014
   0.25000000 -0.25000000  0.12500000       0.014
   0.41666667 -0.25000000  0.12500000       0.014
  -0.41666667 -0.25000000  0.12500000       0.014
  -0.25000000 -0.25000000  0.12500000       0.014
  -0.08333333 -0.25000000  0.12500000       0.014
   0.08333333 -0.08333333  0.12500000       0.014
   0.25000000 -0.08333333  0.12500000       0.014
   0.41666667 -0.08333333  0.12500000       0.014
  -0.41666667 -0.08333333  0.12500000       0.014
  -0.25000000 -0.08333333  0.12500000       0.014
  -0.08333333 -0.08333333  0.12500000       0.014
   0.08333333  0.08333333  0.37500000       0.014
   0.25000000  0.08333333  0.37500000       0.014
   0.41666667  0.08333333  0.37500000       0.014
  -0.41666667  0.08333333  0.37500000       0.014
  -0.25000000  0.08333333  0.37500000       0.014
  -0.08333333  0.08333333  0.37500000       0.014
   0.08333333  0.25000000  0.37500000       0.014
   0.25000000  0.25000000  0.37500000       0.014
   0.41666667  0.25000000  0.37500000       0.014
  -0.41666667  0.25000000  0.37500000       0.014
  -0.25000000  0.25000000  0.37500000       0.014
  -0.08333333  0.25000000  0.37500000       0.014
   0.08333333  0.41666667  0.37500000       0.014
   0.25000000  0.41666667  0.37500000       0.014
   0.41666667  0.41666667  0.37500000       0.014
  -0.41666667  0.41666667  0.37500000       0.014
  -0.25000000  0.41666667  0.37500000       0.014
  -0.08333333  0.41666667  0.37500000       0.014
   0.08333333 -0.41666667  0.37500000       0.014
   0.25000000 -0.41666667  0.37500000       0.014
   0.41666667 -0.41666667  0.37500000       0.014
  -0.41666667 -0.41666667  0.37500000       0.014
  -0.25000000 -0.41666667  0.37500000       0.014
  -0.08333333 -0.41666667  0.37500000       0.014
   0.08333333 -0.25000000  0.37500000       0.014
   0.25000000 -0.25000000  0.37500000       0.014
   0.41666667 -0.25000000  0.37500000       0.014
  -0.41666667 -0.25000000  0.37500000       0.014
  -0.25000000 -0.25000000  0.37500000       0.014
  -0.08333333 -0.25000000  0.37500000       0.014
   0.08333333 -0.08333333  0.37500000       0.014
   0.25000000 -0.08333333  0.37500000       0.014
   0.41666667 -0.08333333  0.37500000       0.014
  -0.41666667 -0.08333333  0.37500000       0.014
  -0.25000000 -0.08333333  0.37500000       0.014
  -0.08333333 -0.08333333  0.37500000       0.014
 
 position of ions in fractional coordinates (direct lattice) 
   0.04000000  0.92000000  0.72000000
   0.12000000  0.76000000  0.16000000
   0.16000000  0.68000000  0.88000000
   0.28000000  0.44000000  0.04000000
   0.32000000  0.36000000  0.76000000
   0.44000000  0.12000000  0.92000000
   0.52000000  0.96000000  0.36000000
   0.56000000  0.88000000  0.08000000
   0.64000000  0.72000000  0.52000000
   0.68000000  0.64000000  0.24000000
   0.76000000  0.48000000  0.68000000
   0.84000000  0.32000000  0.12000000
   0.88000000  0.24000000  0.84000000
   0.96000000  0.08000000  0.28000000
   0.00000000  0.00000000  0.00000000
   0.08000000  0.84000000  0.44000000
   0.20000000  0.60000000  0.60000000
   0.24000000  0.52000000  0.32000000
   0.36000000  0.28000000  0.48000000
   0.40000000  0.20000000  0.20000000
   0.48000000  0.04000000  0.64000000
   0.60000000  0.80000000  0.80000000
   0.72000000  0.56000000  0.96000000
   0.80000000  0.40000000  0.40000000
   0.92000000  0.16000000  0.56000000
   0.04000000  0.42000000  0.72000000
   0.08000000  0.34000000  0.44000000
   0.12000000  0.26000000  0.16000000
   0.16000000  0.18000000  0.88000000
   0.20000000  0.10000000  0.60000000
   0.24000000  0.02000000  0.32000000
   0.28000000  0.94000000  0.04000000
   0.92000000  0.66000000  0.56000000
   0.96000000  0.58000000  0.28000000
   0.00000000  0.50000000  0.00000000
   0.80000000  0.90000000  0.40000000
   0.84000000  0.82000000  0.12000000
   0.88000000  0.74000000  0.84000000
   0.68000000  0.14000000  0.24000000
   0.72000000  0.06000000  0.96000000
   0.76000000  0.98000000  0.68000000
   0.56000000  0.38000000  0.08000000
   0.60000000  0.30000000  0.80000000
   0.64000000  0.22000000  0.52000000
   0.44000000  0.62000000  0.92000000
   0.48000000  0.54000000  0.64000000
   0.52000000  0.46000000  0.36000000
   0.40000000  0.70000000  0.20000000
   0.32000000  0.86000000  0.76000000
   0.36000000  0.78000000  0.48000000
 
 position of ions in cartesian coordinates  (Angst):
  -1.88372287 -7.53489146  1.88372287
   1.88372287 -3.76744573  1.88372287
  -3.76744573 -7.53489146  0.00000000
   1.88372287 -1.88372287 -0.00000000
  -3.76744573 -5.65116860 -1.88372287
  -5.65116860 -5.65116860 -3.76744573
   1.88372287 -5.65116860 -0.00000000
   3.76744573 -3.76744573 -0.00000000
  -0.00000000 -5.65116860 -1.88372287
   1.88372287 -3.76744573 -1.88372287
  -1.88372287 -5.65116860 -3.76744573
   1.88372287 -1.88372287 -3.76744573
  -3.76744573 -5.65116860 -5.65116860
  -0.00000000 -1.88372287 -5.65116860
   0.00000000  0.00000000  0.00000000
   0.00000000 -5.65116860  1.88372287
  -1.88372287 -5.65116860 -0.00000000
   0.00000000 -3.76744573 -0.00000000
  -1.88372287 -3.76744573 -1.88372287
  -0.00000000 -1.88372287 -1.88372287
  -3.76744573 -3.76744573 -3.76744573
  -1.88372287 -7.53489146 -1.88372287
  -3.76744573 -7.53489146 -3.76744573
   0.00000000 -3.76744573 -3.76744573
  -1.88372287 -3.76744573 -5.65116860
  -3.76744573 -5.65116860  0.00000000
  -1.88372287 -3.76744573  0.00000000
   0.00000000 -1.88372287  0.00000000
  -5.65116860 -5.65116860 -1.88372287
  -3.76744573 -3.76744573 -1.88372287
  -1.88372287 -1.88372287 -1.88372287
   3.76744573 -3.76744573  1.88372287
  -0.00000000 -5.65116860 -3.76744573
   1.88372287 -3.76744573 -3.76744573
   1.88372287 -1.88372287  1.88372287
   1.88372287 -5.65116860 -1.88372287
   3.76744573 -3.76744573 -1.88372287
  -1.88372287 -7.53489146 -3.76744573
  -0.00000000 -1.88372287 -3.76744573
  -5.65116860 -5.65116860 -5.65116860
  -0.00000000 -7.53489146 -1.88372287
   1.88372287 -1.88372287 -1.88372287
  -3.76744573 -5.65116860 -3.76744573
  -1.88372287 -3.76744573 -3.76744573
  -3.76744573 -7.53489146 -1.88372287
  -1.88372287 -5.65116860 -1.88372287
   0.00000000 -3.76744573 -1.88372287
   1.88372287 -3.76744573  0.00000000
  -1.88372287 -7.53489146 -0.00000000
   0.00000000 -5.65116860  0.00000000
 


--------------------------------------------------------------------------------------------------------


 k-point  1 :   0.0833 0.0833 0.1250  plane waves:    8435
 k-point  2 :   0.2500 0.0833 0.1250  plane waves:    8446
 k-point  3 :   0.4167 0.0833 0.1250  plane waves:    8450
 k-point  4 :  -0.4167 0.0833 0.1250  plane waves:    8460
 k-point  5 :  -0.2500 0.0833 0.1250  plane waves:    8425
 k-point  6 :  -0.0833 0.0833 0.1250  plane waves:    8433
 k-point  7 :   0.0833 0.2500 0.1250  plane waves:    8447
 k-point  8 :   0.2500 0.2500 0.1250  plane waves:    8469
 k-point  9 :   0.4167 0.2500 0.1250  plane waves:    8453
 k-point 10 :  -0.4167 0.2500 0.1250  plane waves:    8441
 k-point 11 :  -0.2500 0.2500 0.1250  plane waves:    8451
 k-point 12 :  -0.0833 0.2500 0.1250  plane waves:    8441
 k-point 13 :   0.0833 0.4167 0.1250  plane waves:    8452
 k-point 14 :   0.2500 0.4167 0.1250  plane waves:    8460
 k-point 15 :   0.4167 0.4167 0.1250  plane waves:    8457
 k-point 16 :  -0.4167 0.4167 0.1250  plane waves:    8449
 k-point 17 :  -0.2500 0.4167 0.1250  plane waves:    8462
 k-point 18 :  -0.0833 0.4167 0.1250  plane waves:    8447
 k-point 19 :   0.0833-0.4167 0.1250  plane waves:    8455
 k-point 20 :   0.2500-0.4167 0.1250  plane waves:    8456
 k-point 21 :   0.4167-0.4167 0.1250  plane waves:    8447
 k-point 22 :  -0.4167-0.4167 0.1250  plane waves:    8445
 k-point 23 :  -0.2500-0.4167 0.1250  plane waves:    8453
 k-point 24 :  -0.0833-0.4167 0.1250  plane waves:    8442
 k-point 25 :   0.0833-0.2500 0.1250  plane waves:    8445
 k-point 26 :   0.2500-0.2500 0.1250  plane waves:    8441
 k-point 27 :   0.4167-0.2500 0.1250  plane waves:    8450
 k-point 28 :  -0.4167-0.2500 0.1250  plane waves:    8460
 k-point 29 :  -0.2500-0.2500 0.1250  plane waves:    8444
 k-point 30 :  -0.0833-0.2500 0.1250  plane waves:    8433
 k-point 31 :   0.0833-0.0833 0.1250  plane waves:    8428
 k-point 32 :   0.2500-0.0833 0.1250  plane waves:    8440
 k-point 33 :   0.4167-0.0833 0.1250  plane waves:    8448
 k-point 34 :  -0.4167-0.0833 0.1250  plane waves:    8465
 k-point 35 :  -0.2500-0.0833 0.1250  plane waves:    8434
 k-point 36 :  -0.0833-0.0833 0.1250  plane waves:    8417
 k-point 37 :   0.0833 0.0833 0.3750  plane waves:    8441
 k-point 38 :   0.2500 0.0833 0.3750  plane waves:    8427
 k-point 39 :   0.4167 0.0833 0.3750  plane waves:    8449
 k-point 40 :  -0.4167 0.0833 0.3750  plane waves:    8457
 k-point 41 :  -0.2500 0.0833 0.3750  plane waves:    8420
 k-point 42 :  -0.0833 0.0833 0.3750  plane waves:    8427
 k-point 43 :   0.0833 0.2500 0.3750  plane waves:    8425
 k-point 44 :   0.2500 0.2500 0.3750  plane waves:    8449
 k-point 45 :   0.4167 0.2500 0.3750  plane waves:    8458
 k-point 46 :  -0.4167 0.2500 0.3750  plane waves:    8436
 k-point 47 :  -0.2500 0.2500 0.3750  plane waves:    8443
 k-point 48 :  -0.0833 0.2500 0.3750  plane waves:    8431
 k-point 49 :   0.0833 0.4167 0.3750  plane waves:    8435
 k-point 50 :   0.2500 0.4167 0.3750  plane waves:    8439
 k-point 51 :   0.4167 0.4167 0.3750  plane waves:    8450
 k-point 52 :  -0.4167 0.4167 0.3750  plane waves:    8441
 k-point 53 :  -0.2500 0.4167 0.3750  plane waves:    8447
 k-point 54 :  -0.0833 0.4167 0.3750  plane waves:    8449
 k-point 55 :   0.0833-0.4167 0.3750  plane waves:    8452
 k-point 56 :   0.2500-0.4167 0.3750  plane waves:    8438
 k-point 57 :   0.4167-0.4167 0.3750  plane waves:    8457
 k-point 58 :  -0.4167-0.4167 0.3750  plane waves:    8453
 k-point 59 :  -0.2500-0.4167 0.3750  plane waves:    8450
 k-point 60 :  -0.0833-0.4167 0.3750  plane waves:    8455
 k-point 61 :   0.0833-0.2500 0.3750  plane waves:    8439
 k-point 62 :   0.2500-0.2500 0.3750  plane waves:    8436
 k-point 63 :   0.4167-0.2500 0.3750  plane waves:    8438
 k-point 64 :  -0.4167-0.2500 0.3750  plane waves:    8446
 k-point 65 :  -0.2500-0.2500 0.3750  plane waves:    8431
 k-point 66 :  -0.0833-0.2500 0.3750  plane waves:    8449
 k-point 67 :   0.0833-0.0833 0.3750  plane waves:    8433
 k-point 68 :   0.2500-0.0833 0.3750  plane waves:    8431
 k-point 69 :   0.4167-0.0833 0.3750  plane waves:    8429
 k-point 70 :  -0.4167-0.0833 0.3750  plane waves:    8440
 k-point 71 :  -0.2500-0.0833 0.3750  plane waves:    8430
 k-point 72 :  -0.0833-0.0833 0.3750  plane waves:    8425

 maximum and minimum number of plane-waves per node :      8469     8417

 maximum number of plane-waves:      8469
 maximum index in each direction: 
   IXMAX=   11   IYMAX=   12   IZMAX=   17
   IXMIN=  -11   IYMIN=  -12   IZMIN=  -17

 NGX is ok and might be reduce to  46
 WARNING: aliasing errors must be expected set NGY to  50 to avoid them
 NGZ is ok and might be reduce to  70
 aliasing errors are usually negligible using standard VASP settings
 and one can safely disregard these warnings

 serial   3D FFT for wavefunctions
 parallel 3D FFT for charge:
    minimum data exchange during FFTs selected (reduces bandwidth)


 total amount of memory used by VASP on root node  4996627. kBytes
========================================================================

   base      :      30000. kBytes
   nonlr-proj:      22577. kBytes
   fftplans  :      44524. kBytes
   grid      :     127844. kBytes
   one-center:       1555. kBytes
   wavefun   :    4770127. kBytes
 
     INWAV:  cpu time    0.0000: real time    0.0000
 Broyden mixing: mesh for mixing (old mesh)
   NGX = 21   NGY = 23   NGZ = 35
  (NGX  = 96   NGY  = 96   NGZ  =140)
  gives a total of  16905 points

 initial charge density was supplied:
 charge density of overlapping atoms calculated
 number of electron     325.0000000 magnetization      74.0000000
 keeping initial charge density in first step


--------------------------------------------------------------------------------------------------------


 Maximum index for non-local projection operator         6922
 Maximum index for augmentation-charges        15977 (set IRDMAX)


--------------------------------------------------------------------------------------------------------


 First call to EWALD:  gamma=   0.255
 Maximum number of real-space cells 3x 3x 2
 Maximum number of reciprocal cells 2x 3x 4

 FEWALD executed in parallel
    FEWALD:  cpu time    0.0110: real time    0.0114


----------------------------------------- Iteration    1(   1)  ---------------------------------------


    POTLOK:  cpu time    0.2800: real time    0.2799
    SETDIJ:  cpu time    0.2080: real time    0.2067
atom =   1  type =  1  l = 0
 
 onsite density matrix
 
spin component  1
 
  1.2230
 
spin component  2
 
  0.8153
 
 occupancies and eigenvectors
 
  o =  0.8153  v =  0.0000  1.0000      0.0000  0.0000
  o =  1.2230  v =  1.0000  0.0000      0.0000  0.0000
atom =   2  type =  1  l = 0
 
 onsite density matrix
 
spin component  1
 
  1.2230
 
spin component  2
 
  0.8153
 
 occupancies and eigenvectors
 
  o =  0.8153  v =  0.0000  1.0000      0.0000  0.0000
  o =  1.2230  v =  1.0000  0.0000      0.0000  0.0000
atom =   3  type =  1  l = 0
 
 onsite density matrix
 
spin component  1
 
  1.2230
 
spin component  2
 
  0.8153
 
 occupancies and eigenvectors
 
  o =  0.8153  v =  0.0000  1.0000      0.0000  0.0000
  o =  1.2230  v =  1.0000  0.0000      0.0000  0.0000
atom =   4  type =  1  l = 0
 
 onsite density matrix
 
spin component  1
 
  1.2230
 
spin component  2
 
  0.8153
 
 occupancies and eigenvectors
 
  o =  0.8153  v =  0.0000  1.0000      0.0000  0.0000
  o =  1.2230  v =  1.0000  0.0000      0.0000  0.0000
atom =   5  type =  1  l = 0
 
 onsite density matrix
 
spin component  1
 
  1.2230
 
spin component  2
 
  0.8153
 
 occupancies and eigenvectors
 
  o =  0.8153  v =  0.0000  1.0000      0.0000  0.0000
  o =  1.2230  v =  1.0000  0.0000      0.0000  0.0000
atom =   6  type =  1  l = 0
 
 onsite density matrix
 
spin component  1
 
  1.2230
 
spin component  2
 
  0.8153
 
 occupancies and eigenvectors
 
  o =  0.8153  v =  0.0000  1.0000      0.0000  0.0000
  o =  1.2230  v =  1.0000  0.0000      0.0000  0.0000
atom =   7  type =  1  l = 0
 
 onsite density matrix
 
spin component  1
 
  1.2230
 
spin component  2
 
  0.8153
 
 occupancies and eigenvectors
 
  o =  0.8153  v =  0.0000  1.0000      0.0000  0.0000
  o =  1.2230  v =  1.0000  0.0000      0.0000  0.0000
atom =   8  type =  1  l = 0
 
 onsite density matrix
 
spin component  1
 
  1.2230
 
spin component  2
 
  0.8153
 
 occupancies and eigenvectors
 
  o =  0.8153  v =  0.0000  1.0000      0.0000  0.0000
  o =  1.2230  v =  1.0000  0.0000      0.0000  0.0000
atom =   9  type =  1  l = 0
 
 onsite density matrix
 
spin component  1
 
  1.2230
 
spin component  2
 
  0.8153
 
 occupancies and eigenvectors
 
  o =  0.8153  v =  0.0000  1.0000      0.0000  0.0000
  o =  1.2230  v =  1.0000  0.0000      0.0000  0.0000
atom =  10  type =  1  l = 0
 
 onsite density matrix
 
spin component  1
 
  1.2230
 
spin component  2
 
  0.8153
 
 occupancies and eigenvectors
 
  o =  0.8153  v =  0.0000  1.0000      0.0000  0.0000
  o =  1.2230  v =  1.0000  0.0000      0.0000  0.0000
atom =  11  type =  1  l = 0
 
 onsite density matrix
 
spin component  1
 
  1.2230
 
spin component  2
 
  0.8153
 
 occupancies and eigenvectors
 
  o =  0.8153  v =  0.0000  1.0000      0.0000  0.0000
  o =  1.2230  v =  1.0000  0.0000      0.0000  0.0000
atom =  12  type =  1  l = 0
 
 onsite density matrix
 
spin component  1
 
  1.2230
 
spin component  2
 
  0.8153
 
 occupancies and eigenvectors
 
  o =  0.8153  v =  0.0000  1.0000      0.0000  0.0000
  o =  1.2230  v =  1.0000  0.0000      0.0000  0.0000
atom =  13  type =  1  l = 0
 
 onsite density matrix
 
spin component  1
 
  1.2230
 
spin component  2
 
  0.8153
 
 occupancies and eigenvectors
 
  o =  0.8153  v =  0.0000  1.0000      0.0000  0.0000
  o =  1.2230  v =  1.0000  0.0000      0.0000  0.0000
atom =  14  type =  1  l = 0
 
 onsite density matrix
 
spin component  1
 
  1.2230
 
spin component  2
 
  0.8153
 
 occupancies and eigenvectors
 
  o =  0.8153  v =  0.0000  1.0000      0.0000  0.0000
  o =  1.2230  v =  1.0000  0.0000      0.0000  0.0000
atom =  15  type =  1  l = 0
 
 onsite density matrix
 
spin component  1
 
  1.2230
 
spin component  2
 
  0.8153
 
 occupancies and eigenvectors
 
  o =  0.8153  v =  0.0000  1.0000      0.0000  0.0000
  o =  1.2230  v =  1.0000  0.0000      0.0000  0.0000
atom =  16  type =  2  l = 2
 
 onsite density matrix
 
spin component  1
 
  0.4481  0.0000  0.0000  0.0000  0.0000
  0.0000  0.4481  0.0000  0.0000  0.0000
  0.0000  0.0000  0.4481  0.0000  0.0000
  0.0000  0.0000  0.0000  0.4481  0.0000
  0.0000  0.0000  0.0000  0.0000  0.4481
 
spin component  2
 
  0.1991  0.0000  0.0000  0.0000  0.0000
  0.0000  0.1991  0.0000  0.0000  0.0000
  0.0000  0.0000  0.1991  0.0000  0.0000
  0.0000  0.0000  0.0000  0.1991  0.0000
  0.0000  0.0000  0.0000  0.0000  0.1991
 
 occupancies and eigenvectors
 
  o =  0.1991  v =  0.0000  0.0000  0.0000  0.0000  0.0000  1.0000  0.0000  0.0000  0.0000  0.0000      0.0000  0.0000  0.0000  0.0000  0.0000  0.0000  0.0000  0.0000  0.0000  0.0000
  o =  0.1991  v =  0.0000  0.0000  0.0000  0.0000  0.0000  0.0000  1.0000  0.0000  0.0000  0.0000      0.0000  0.0000  0.0000  0.0000  0.0000  0.0000  0.0000  0.0000  0.0000  0.0000
  o =  0.1991  v =  0.0000  0.0000  0.0000  0.0000  0.0000  0.0000  0.0000  1.0000  0.0000  0.0000      0.0000  0.0000  0.0000  0.0000  0.0000  0.0000  0.0000  0.0000  0.0000  0.0000
  o =  0.1991  v =  0.0000  0.0000  0.0000  0.0000  0.0000  0.0000  0.0000  0.0000  1.0000  0.0000      0.0000  0.0000  0.0000  0.0000  0.0000  0.0000  0.0000  0.0000  0.0000  0.0000
  o =  0.1991  v =  0.0000  0.0000  0.0000  0.0000  0.0000  0.0000  0.0000  0.0000  0.0000  1.0000      0.0000  0.0000  0.0000  0.0000  0.0000  0.0000  0.0000  0.0000  0.0000  0.0000
  o =  0.4481  v =  1.0000  0.0000  0.0000  0.0000  0.0000  0.0000  0.0000  0.0000  0.0000  0.0000      0.0000  0.0000  0.0000  0.0000  0.0000  0.0000  0.0000  0.0000  0.0000  0.0000
  o =  0.4481  v =  0.0000  1.0000  0.0000  0.0000  0.0000  0.0000  0.0000  0.0000  0.0000  0.0000      0.0000  0.0000  0.0000  0.0000  0.0000  0.0000  0.0000  0.0000  0.0000  0.0000
  o =  0.4481  v =  0.0000  0.0000  1.0000  0.0000  0.0000  0.0000  0.0000  0.0000  0.0000  0.0000      0.0000  0.0000  0.0000  0.0000  0.0000  0.0000  0.0000  0.0000  0.0000  0.0000
  o =  0.4481  v =  0.0000  0.0000  0.0000  1.0000  0.0000  0.0000  0.0000  0.0000  0.0000  0.0000      0.0000  0.0000  0.0000  0.0000  0.0000  0.0000  0.0000  0.0000  0.0000  0.0000
  o =  0.4481  v =  0.0000  0.0000  0.0000  0.0000  1.0000  0.0000  0.0000  0.0000  0.0000  0.0000      0.0000  0.0000  0.0000  0.0000  0.0000  0.0000  0.0000  0.0000  0.0000  0.0000
atom =  17  type =  2  l = 2
 
 onsite density matrix
 
spin component  1
 
  0.4481  0.0000  0.0000  0.0000  0.0000
  0.0000  0.4481  0.0000  0.0000  0.0000
  0.0000  0.0000  0.4481  0.0000  0.0000
  0.0000  0.0000  0.0000  0.4481  0.0000
  0.0000  0.0000  0.0000  0.0000  0.4481
 
spin component  2
 
  0.1991  0.0000  0.0000  0.0000  0.0000
  0.0000  0.1991  0.0000  0.0000  0.0000
  0.0000  0.0000  0.1991  0.0000  0.0000
  0.0000  0.0000  0.0000  0.1991  0.0000
  0.0000  0.0000  0.0000  0.0000  0.1991
 
 occupancies and eigenvectors
 
  o =  0.1991  v =  0.0000  0.0000  0.0000  0.0000  0.0000  1.0000  0.0000  0.0000  0.0000  0.0000      0.0000  0.0000  0.0000  0.0000  0.0000  0.0000  0.0000  0.0000  0.0000  0.0000
  o =  0.1991  v =  0.0000  0.0000  0.0000  0.0000  0.0000  0.0000  1.0000  0.0000  0.0000  0.0000      0.0000  0.0000  0.0000  0.0000  0.0000  0.0000  0.0000  0.0000  0.0000  0.0000
  o =  0.1991  v =  0.0000  0.0000  0.0000  0.0000  0.0000  0.0000  0.0000  1.0000  0.0000  0.0000      0.0000  0.0000  0.0000  0.0000  0.0000  0.0000  0.0000  0.0000  0.0000  0.0000
  o =  0.1991  v =  0.0000  0.0000  0.0000  0.0000  0.0000  0.0000  0.0000  0.0000  1.0000  0.0000      0.0000  0.0000  0.0000  0.0000  0.0000  0.0000  0.0000  0.0000  0.0000  0.0000
  o =  0.1991  v =  0.0000  0.0000  0.0000  0.0000  0.0000  0.0000  0.0000  0.0000  0.0000  1.0000      0.0000  0.0000  0.0000  0.0000  0.0000  0.0000  0.0000  0.0000  0.0000  0.0000
  o =  0.4481  v =  1.0000  0.0000  0.0000  0.0000  0.0000  0.0000  0.0000  0.0000  0.0000  0.0000      0.0000  0.0000  0.0000  0.0000  0.0000  0.0000  0.0000  0.0000  0.0000  0.0000
  o =  0.4481  v =  0.0000  1.0000  0.0000  0.0000  0.0000  0.0000  0.0000  0.0000  0.0000  0.0000      0.0000  0.0000  0.0000  0.0000  0.0000  0.0000  0.0000  0.0000  0.0000  0.0000
  o =  0.4481  v =  0.0000  0.0000  1.0000  0.0000  0.0000  0.0000  0.0000  0.0000  0.0000  0.0000      0.0000  0.0000  0.0000  0.0000  0.0000  0.0000  0.0000  0.0000  0.0000  0.0000
  o =  0.4481  v =  0.0000  0.0000  0.0000  1.0000  0.0000  0.0000  0.0000  0.0000  0.0000  0.0000      0.0000  0.0000  0.0000  0.0000  0.0000  0.0000  0.0000  0.0000  0.0000  0.0000
  o =  0.4481  v =  0.0000  0.0000  0.0000  0.0000  1.0000  0.0000  0.0000  0.0000  0.0000  0.0000      0.0000  0.0000  0.0000  0.0000  0.0000  0.0000  0.0000  0.0000  0.0000  0.0000
atom =  18  type =  2  l = 2
 
 onsite density matrix
 
spin component  1
 
  0.4481  0.0000  0.0000  0.0000  0.0000
  0.0000  0.4481  0.0000  0.0000  0.0000
  0.0000  0.0000  0.4481  0.0000  0.0000
  0.0000  0.0000  0.0000  0.4481  0.0000
  0.0000  0.0000  0.0000  0.0000  0.4481
 
spin component  2
 
  0.1991  0.0000  0.0000  0.0000  0.0000
  0.0000  0.1991  0.0000  0.0000  0.0000
  0.0000  0.0000  0.1991  0.0000  0.0000
  0.0000  0.0000  0.0000  0.1991  0.0000
  0.0000  0.0000  0.0000  0.0000  0.1991
 
 occupancies and eigenvectors
 
  o =  0.1991  v =  0.0000  0.0000  0.0000  0.0000  0.0000  1.0000  0.0000  0.0000  0.0000  0.0000      0.0000  0.0000  0.0000  0.0000  0.0000  0.0000  0.0000  0.0000  0.0000  0.0000
  o =  0.1991  v =  0.0000  0.0000  0.0000  0.0000  0.0000  0.0000  1.0000  0.0000  0.0000  0.0000      0.0000  0.0000  0.0000  0.0000  0.0000  0.0000  0.0000  0.0000  0.0000  0.0000
  o =  0.1991  v =  0.0000  0.0000  0.0000  0.0000  0.0000  0.0000  0.0000  1.0000  0.0000  0.0000      0.0000  0.0000  0.0000  0.0000  0.0000  0.0000  0.0000  0.0000  0.0000  0.0000
  o =  0.1991  v =  0.0000  0.0000  0.0000  0.0000  0.0000  0.0000  0.0000  0.0000  1.0000  0.0000      0.0000  0.0000  0.0000  0.0000  0.0000  0.0000  0.0000  0.0000  0.0000  0.0000
  o =  0.1991  v =  0.0000  0.0000  0.0000  0.0000  0.0000  0.0000  0.0000  0.0000  0.0000  1.0000      0.0000  0.0000  0.0000  0.0000  0.0000  0.0000  0.0000  0.0000  0.0000  0.0000
  o =  0.4481  v =  1.0000  0.0000  0.0000  0.0000  0.0000  0.0000  0.0000  0.0000  0.0000  0.0000      0.0000  0.0000  0.0000  0.0000  0.0000  0.0000  0.0000  0.0000  0.0000  0.0000
  o =  0.4481  v =  0.0000  1.0000  0.0000  0.0000  0.0000  0.0000  0.0000  0.0000  0.0000  0.0000      0.0000  0.0000  0.0000  0.0000  0.0000  0.0000  0.0000  0.0000  0.0000  0.0000
  o =  0.4481  v =  0.0000  0.0000  1.0000  0.0000  0.0000  0.0000  0.0000  0.0000  0.0000  0.0000      0.0000  0.0000  0.0000  0.0000  0.0000  0.0000  0.0000  0.0000  0.0000  0.0000
  o =  0.4481  v =  0.0000  0.0000  0.0000  1.0000  0.0000  0.0000  0.0000  0.0000  0.0000  0.0000      0.0000  0.0000  0.0000  0.0000  0.0000  0.0000  0.0000  0.0000  0.0000  0.0000
  o =  0.4481  v =  0.0000  0.0000  0.0000  0.0000  1.0000  0.0000  0.0000  0.0000  0.0000  0.0000      0.0000  0.0000  0.0000  0.0000  0.0000  0.0000  0.0000  0.0000  0.0000  0.0000
atom =  19  type =  2  l = 2
 
 onsite density matrix
 
spin component  1
 
  0.4481  0.0000  0.0000  0.0000  0.0000
  0.0000  0.4481  0.0000  0.0000  0.0000
  0.0000  0.0000  0.4481  0.0000  0.0000
  0.0000  0.0000  0.0000  0.4481  0.0000
  0.0000  0.0000  0.0000  0.0000  0.4481
 
spin component  2
 
  0.1991  0.0000  0.0000  0.0000  0.0000
  0.0000  0.1991  0.0000  0.0000  0.0000
  0.0000  0.0000  0.1991  0.0000  0.0000
  0.0000  0.0000  0.0000  0.1991  0.0000
  0.0000  0.0000  0.0000  0.0000  0.1991
 
 occupancies and eigenvectors
 
  o =  0.1991  v =  0.0000  0.0000  0.0000  0.0000  0.0000  1.0000  0.0000  0.0000  0.0000  0.0000      0.0000  0.0000  0.0000  0.0000  0.0000  0.0000  0.0000  0.0000  0.0000  0.0000
  o =  0.1991  v =  0.0000  0.0000  0.0000  0.0000  0.0000  0.0000  1.0000  0.0000  0.0000  0.0000      0.0000  0.0000  0.0000  0.0000  0.0000  0.0000  0.0000  0.0000  0.0000  0.0000
  o =  0.1991  v =  0.0000  0.0000  0.0000  0.0000  0.0000  0.0000  0.0000  1.0000  0.0000  0.0000      0.0000  0.0000  0.0000  0.0000  0.0000  0.0000  0.0000  0.0000  0.0000  0.0000
  o =  0.1991  v =  0.0000  0.0000  0.0000  0.0000  0.0000  0.0000  0.0000  0.0000  1.0000  0.0000      0.0000  0.0000  0.0000  0.0000  0.0000  0.0000  0.0000  0.0000  0.0000  0.0000
  o =  0.1991  v =  0.0000  0.0000  0.0000  0.0000  0.0000  0.0000  0.0000  0.0000  0.0000  1.0000      0.0000  0.0000  0.0000  0.0000  0.0000  0.0000  0.0000  0.0000  0.0000  0.0000
  o =  0.4481  v =  1.0000  0.0000  0.0000  0.0000  0.0000  0.0000  0.0000  0.0000  0.0000  0.0000      0.0000  0.0000  0.0000  0.0000  0.0000  0.0000  0.0000  0.0000  0.0000  0.0000
  o =  0.4481  v =  0.0000  1.0000  0.0000  0.0000  0.0000  0.0000  0.0000  0.0000  0.0000  0.0000      0.0000  0.0000  0.0000  0.0000  0.0000  0.0000  0.0000  0.0000  0.0000  0.0000
  o =  0.4481  v =  0.0000  0.0000  1.0000  0.0000  0.0000  0.0000  0.0000  0.0000  0.0000  0.0000      0.0000  0.0000  0.0000  0.0000  0.0000  0.0000  0.0000  0.0000  0.0000  0.0000
  o =  0.4481  v =  0.0000  0.0000  0.0000  1.0000  0.0000  0.0000  0.0000  0.0000  0.0000  0.0000      0.0000  0.0000  0.0000  0.0000  0.0000  0.0000  0.0000  0.0000  0.0000  0.0000
  o =  0.4481  v =  0.0000  0.0000  0.0000  0.0000  1.0000  0.0000  0.0000  0.0000  0.0000  0.0000      0.0000  0.0000  0.0000  0.0000  0.0000  0.0000  0.0000  0.0000  0.0000  0.0000
atom =  20  type =  2  l = 2
 
 onsite density matrix
 
spin component  1
 
  0.4481  0.0000  0.0000  0.0000  0.0000
  0.0000  0.4481  0.0000  0.0000  0.0000
  0.0000  0.0000  0.4481  0.0000  0.0000
  0.0000  0.0000  0.0000  0.4481  0.0000
  0.0000  0.0000  0.0000  0.0000  0.4481
 
spin component  2
 
  0.1991  0.0000  0.0000  0.0000  0.0000
  0.0000  0.1991  0.0000  0.0000  0.0000
  0.0000  0.0000  0.1991  0.0000  0.0000
  0.0000  0.0000  0.0000  0.1991  0.0000
  0.0000  0.0000  0.0000  0.0000  0.1991
 
 occupancies and eigenvectors
 
  o =  0.1991  v =  0.0000  0.0000  0.0000  0.0000  0.0000  1.0000  0.0000  0.0000  0.0000  0.0000      0.0000  0.0000  0.0000  0.0000  0.0000  0.0000  0.0000  0.0000  0.0000  0.0000
  o =  0.1991  v =  0.0000  0.0000  0.0000  0.0000  0.0000  0.0000  1.0000  0.0000  0.0000  0.0000      0.0000  0.0000  0.0000  0.0000  0.0000  0.0000  0.0000  0.0000  0.0000  0.0000
  o =  0.1991  v =  0.0000  0.0000  0.0000  0.0000  0.0000  0.0000  0.0000  1.0000  0.0000  0.0000      0.0000  0.0000  0.0000  0.0000  0.0000  0.0000  0.0000  0.0000  0.0000  0.0000
  o =  0.1991  v =  0.0000  0.0000  0.0000  0.0000  0.0000  0.0000  0.0000  0.0000  1.0000  0.0000      0.0000  0.0000  0.0000  0.0000  0.0000  0.0000  0.0000  0.0000  0.0000  0.0000
  o =  0.1991  v =  0.0000  0.0000  0.0000  0.0000  0.0000  0.0000  0.0000  0.0000  0.0000  1.0000      0.0000  0.0000  0.0000  0.0000  0.0000  0.0000  0.0000  0.0000  0.0000  0.0000
  o =  0.4481  v =  1.0000  0.0000  0.0000  0.0000  0.0000  0.0000  0.0000  0.0000  0.0000  0.0000      0.0000  0.0000  0.0000  0.0000  0.0000  0.0000  0.0000  0.0000  0.0000  0.0000
  o =  0.4481  v =  0.0000  1.0000  0.0000  0.0000  0.0000  0.0000  0.0000  0.0000  0.0000  0.0000      0.0000  0.0000  0.0000  0.0000  0.0000  0.0000  0.0000  0.0000  0.0000  0.0000
  o =  0.4481  v =  0.0000  0.0000  1.0000  0.0000  0.0000  0.0000  0.0000  0.0000  0.0000  0.0000      0.0000  0.0000  0.0000  0.0000  0.0000  0.0000  0.0000  0.0000  0.0000  0.0000
  o =  0.4481  v =  0.0000  0.0000  0.0000  1.0000  0.0000  0.0000  0.0000  0.0000  0.0000  0.0000      0.0000  0.0000  0.0000  0.0000  0.0000  0.0000  0.0000  0.0000  0.0000  0.0000
  o =  0.4481  v =  0.0000  0.0000  0.0000  0.0000  1.0000  0.0000  0.0000  0.0000  0.0000  0.0000      0.0000  0.0000  0.0000  0.0000  0.0000  0.0000  0.0000  0.0000  0.0000  0.0000
atom =  21  type =  2  l = 2
 
 onsite density matrix
 
spin component  1
 
  0.4481  0.0000  0.0000  0.0000  0.0000
  0.0000  0.4481  0.0000  0.0000  0.0000
  0.0000  0.0000  0.4481  0.0000  0.0000
  0.0000  0.0000  0.0000  0.4481  0.0000
  0.0000  0.0000  0.0000  0.0000  0.4481
 
spin component  2
 
  0.1991  0.0000  0.0000  0.0000  0.0000
  0.0000  0.1991  0.0000  0.0000  0.0000
  0.0000  0.0000  0.1991  0.0000  0.0000
  0.0000  0.0000  0.0000  0.1991  0.0000
  0.0000  0.0000  0.0000  0.0000  0.1991
 
 occupancies and eigenvectors
 
  o =  0.1991  v =  0.0000  0.0000  0.0000  0.0000  0.0000  1.0000  0.0000  0.0000  0.0000  0.0000      0.0000  0.0000  0.0000  0.0000  0.0000  0.0000  0.0000  0.0000  0.0000  0.0000
  o =  0.1991  v =  0.0000  0.0000  0.0000  0.0000  0.0000  0.0000  1.0000  0.0000  0.0000  0.0000      0.0000  0.0000  0.0000  0.0000  0.0000  0.0000  0.0000  0.0000  0.0000  0.0000
  o =  0.1991  v =  0.0000  0.0000  0.0000  0.0000  0.0000  0.0000  0.0000  1.0000  0.0000  0.0000      0.0000  0.0000  0.0000  0.0000  0.0000  0.0000  0.0000  0.0000  0.0000  0.0000
  o =  0.1991  v =  0.0000  0.0000  0.0000  0.0000  0.0000  0.0000  0.0000  0.0000  1.0000  0.0000      0.0000  0.0000  0.0000  0.0000  0.0000  0.0000  0.0000  0.0000  0.0000  0.0000
  o =  0.1991  v =  0.0000  0.0000  0.0000  0.0000  0.0000  0.0000  0.0000  0.0000  0.0000  1.0000      0.0000  0.0000  0.0000  0.0000  0.0000  0.0000  0.0000  0.0000  0.0000  0.0000
  o =  0.4481  v =  1.0000  0.0000  0.0000  0.0000  0.0000  0.0000  0.0000  0.0000  0.0000  0.0000      0.0000  0.0000  0.0000  0.0000  0.0000  0.0000  0.0000  0.0000  0.0000  0.0000
  o =  0.4481  v =  0.0000  1.0000  0.0000  0.0000  0.0000  0.0000  0.0000  0.0000  0.0000  0.0000      0.0000  0.0000  0.0000  0.0000  0.0000  0.0000  0.0000  0.0000  0.0000  0.0000
  o =  0.4481  v =  0.0000  0.0000  1.0000  0.0000  0.0000  0.0000  0.0000  0.0000  0.0000  0.0000      0.0000  0.0000  0.0000  0.0000  0.0000  0.0000  0.0000  0.0000  0.0000  0.0000
  o =  0.4481  v =  0.0000  0.0000  0.0000  1.0000  0.0000  0.0000  0.0000  0.0000  0.0000  0.0000      0.0000  0.0000  0.0000  0.0000  0.0000  0.0000  0.0000  0.0000  0.0000  0.0000
  o =  0.4481  v =  0.0000  0.0000  0.0000  0.0000  1.0000  0.0000  0.0000  0.0000  0.0000  0.0000      0.0000  0.0000  0.0000  0.0000  0.0000  0.0000  0.0000  0.0000  0.0000  0.0000
atom =  22  type =  2  l = 2
 
 onsite density matrix
 
spin component  1
 
  0.4481  0.0000  0.0000  0.0000  0.0000
  0.0000  0.4481  0.0000  0.0000  0.0000
  0.0000  0.0000  0.4481  0.0000  0.0000
  0.0000  0.0000  0.0000  0.4481  0.0000
  0.0000  0.0000  0.0000  0.0000  0.4481
 
spin component  2
 
  0.1991  0.0000  0.0000  0.0000  0.0000
  0.0000  0.1991  0.0000  0.0000  0.0000
  0.0000  0.0000  0.1991  0.0000  0.0000
  0.0000  0.0000  0.0000  0.1991  0.0000
  0.0000  0.0000  0.0000  0.0000  0.1991
 
 occupancies and eigenvectors
 
  o =  0.1991  v =  0.0000  0.0000  0.0000  0.0000  0.0000  1.0000  0.0000  0.0000  0.0000  0.0000      0.0000  0.0000  0.0000  0.0000  0.0000  0.0000  0.0000  0.0000  0.0000  0.0000
  o =  0.1991  v =  0.0000  0.0000  0.0000  0.0000  0.0000  0.0000  1.0000  0.0000  0.0000  0.0000      0.0000  0.0000  0.0000  0.0000  0.0000  0.0000  0.0000  0.0000  0.0000  0.0000
  o =  0.1991  v =  0.0000  0.0000  0.0000  0.0000  0.0000  0.0000  0.0000  1.0000  0.0000  0.0000      0.0000  0.0000  0.0000  0.0000  0.0000  0.0000  0.0000  0.0000  0.0000  0.0000
  o =  0.1991  v =  0.0000  0.0000  0.0000  0.0000  0.0000  0.0000  0.0000  0.0000  1.0000  0.0000      0.0000  0.0000  0.0000  0.0000  0.0000  0.0000  0.0000  0.0000  0.0000  0.0000
  o =  0.1991  v =  0.0000  0.0000  0.0000  0.0000  0.0000  0.0000  0.0000  0.0000  0.0000  1.0000      0.0000  0.0000  0.0000  0.0000  0.0000  0.0000  0.0000  0.0000  0.0000  0.0000
  o =  0.4481  v =  1.0000  0.0000  0.0000  0.0000  0.0000  0.0000  0.0000  0.0000  0.0000  0.0000      0.0000  0.0000  0.0000  0.0000  0.0000  0.0000  0.0000  0.0000  0.0000  0.0000
  o =  0.4481  v =  0.0000  1.0000  0.0000  0.0000  0.0000  0.0000  0.0000  0.0000  0.0000  0.0000      0.0000  0.0000  0.0000  0.0000  0.0000  0.0000  0.0000  0.0000  0.0000  0.0000
  o =  0.4481  v =  0.0000  0.0000  1.0000  0.0000  0.0000  0.0000  0.0000  0.0000  0.0000  0.0000      0.0000  0.0000  0.0000  0.0000  0.0000  0.0000  0.0000  0.0000  0.0000  0.0000
  o =  0.4481  v =  0.0000  0.0000  0.0000  1.0000  0.0000  0.0000  0.0000  0.0000  0.0000  0.0000      0.0000  0.0000  0.0000  0.0000  0.0000  0.0000  0.0000  0.0000  0.0000  0.0000
  o =  0.4481  v =  0.0000  0.0000  0.0000  0.0000  1.0000  0.0000  0.0000  0.0000  0.0000  0.0000      0.0000  0.0000  0.0000  0.0000  0.0000  0.0000  0.0000  0.0000  0.0000  0.0000
atom =  23  type =  2  l = 2
 
 onsite density matrix
 
spin component  1
 
  0.4481  0.0000  0.0000  0.0000  0.0000
  0.0000  0.4481  0.0000  0.0000  0.0000
  0.0000  0.0000  0.4481  0.0000  0.0000
  0.0000  0.0000  0.0000  0.4481  0.0000
  0.0000  0.0000  0.0000  0.0000  0.4481
 
spin component  2
 
  0.1991  0.0000  0.0000  0.0000  0.0000
  0.0000  0.1991  0.0000  0.0000  0.0000
  0.0000  0.0000  0.1991  0.0000  0.0000
  0.0000  0.0000  0.0000  0.1991  0.0000
  0.0000  0.0000  0.0000  0.0000  0.1991
 
 occupancies and eigenvectors
 
  o =  0.1991  v =  0.0000  0.0000  0.0000  0.0000  0.0000  1.0000  0.0000  0.0000  0.0000  0.0000      0.0000  0.0000  0.0000  0.0000  0.0000  0.0000  0.0000  0.0000  0.0000  0.0000
  o =  0.1991  v =  0.0000  0.0000  0.0000  0.0000  0.0000  0.0000  1.0000  0.0000  0.0000  0.0000      0.0000  0.0000  0.0000  0.0000  0.0000  0.0000  0.0000  0.0000  0.0000  0.0000
  o =  0.1991  v =  0.0000  0.0000  0.0000  0.0000  0.0000  0.0000  0.0000  1.0000  0.0000  0.0000      0.0000  0.0000  0.0000  0.0000  0.0000  0.0000  0.0000  0.0000  0.0000  0.0000
  o =  0.1991  v =  0.0000  0.0000  0.0000  0.0000  0.0000  0.0000  0.0000  0.0000  1.0000  0.0000      0.0000  0.0000  0.0000  0.0000  0.0000  0.0000  0.0000  0.0000  0.0000  0.0000
  o =  0.1991  v =  0.0000  0.0000  0.0000  0.0000  0.0000  0.0000  0.0000  0.0000  0.0000  1.0000      0.0000  0.0000  0.0000  0.0000  0.0000  0.0000  0.0000  0.0000  0.0000  0.0000
  o =  0.4481  v =  1.0000  0.0000  0.0000  0.0000  0.0000  0.0000  0.0000  0.0000  0.0000  0.0000      0.0000  0.0000  0.0000  0.0000  0.0000  0.0000  0.0000  0.0000  0.0000  0.0000
  o =  0.4481  v =  0.0000  1.0000  0.0000  0.0000  0.0000  0.0000  0.0000  0.0000  0.0000  0.0000      0.0000  0.0000  0.0000  0.0000  0.0000  0.0000  0.0000  0.0000  0.0000  0.0000
  o =  0.4481  v =  0.0000  0.0000  1.0000  0.0000  0.0000  0.0000  0.0000  0.0000  0.0000  0.0000      0.0000  0.0000  0.0000  0.0000  0.0000  0.0000  0.0000  0.0000  0.0000  0.0000
  o =  0.4481  v =  0.0000  0.0000  0.0000  1.0000  0.0000  0.0000  0.0000  0.0000  0.0000  0.0000      0.0000  0.0000  0.0000  0.0000  0.0000  0.0000  0.0000  0.0000  0.0000  0.0000
  o =  0.4481  v =  0.0000  0.0000  0.0000  0.0000  1.0000  0.0000  0.0000  0.0000  0.0000  0.0000      0.0000  0.0000  0.0000  0.0000  0.0000  0.0000  0.0000  0.0000  0.0000  0.0000
atom =  24  type =  2  l = 2
 
 onsite density matrix
 
spin component  1
 
  0.4481  0.0000  0.0000  0.0000  0.0000
  0.0000  0.4481  0.0000  0.0000  0.0000
  0.0000  0.0000  0.4481  0.0000  0.0000
  0.0000  0.0000  0.0000  0.4481  0.0000
  0.0000  0.0000  0.0000  0.0000  0.4481
 
spin component  2
 
  0.1991  0.0000  0.0000  0.0000  0.0000
  0.0000  0.1991  0.0000  0.0000  0.0000
  0.0000  0.0000  0.1991  0.0000  0.0000
  0.0000  0.0000  0.0000  0.1991  0.0000
  0.0000  0.0000  0.0000  0.0000  0.1991
 
 occupancies and eigenvectors
 
  o =  0.1991  v =  0.0000  0.0000  0.0000  0.0000  0.0000  1.0000  0.0000  0.0000  0.0000  0.0000      0.0000  0.0000  0.0000  0.0000  0.0000  0.0000  0.0000  0.0000  0.0000  0.0000
  o =  0.1991  v =  0.0000  0.0000  0.0000  0.0000  0.0000  0.0000  1.0000  0.0000  0.0000  0.0000      0.0000  0.0000  0.0000  0.0000  0.0000  0.0000  0.0000  0.0000  0.0000  0.0000
  o =  0.1991  v =  0.0000  0.0000  0.0000  0.0000  0.0000  0.0000  0.0000  1.0000  0.0000  0.0000      0.0000  0.0000  0.0000  0.0000  0.0000  0.0000  0.0000  0.0000  0.0000  0.0000
  o =  0.1991  v =  0.0000  0.0000  0.0000  0.0000  0.0000  0.0000  0.0000  0.0000  1.0000  0.0000      0.0000  0.0000  0.0000  0.0000  0.0000  0.0000  0.0000  0.0000  0.0000  0.0000
  o =  0.1991  v =  0.0000  0.0000  0.0000  0.0000  0.0000  0.0000  0.0000  0.0000  0.0000  1.0000      0.0000  0.0000  0.0000  0.0000  0.0000  0.0000  0.0000  0.0000  0.0000  0.0000
  o =  0.4481  v =  1.0000  0.0000  0.0000  0.0000  0.0000  0.0000  0.0000  0.0000  0.0000  0.0000      0.0000  0.0000  0.0000  0.0000  0.0000  0.0000  0.0000  0.0000  0.0000  0.0000
  o =  0.4481  v =  0.0000  1.0000  0.0000  0.0000  0.0000  0.0000  0.0000  0.0000  0.0000  0.0000      0.0000  0.0000  0.0000  0.0000  0.0000  0.0000  0.0000  0.0000  0.0000  0.0000
  o =  0.4481  v =  0.0000  0.0000  1.0000  0.0000  0.0000  0.0000  0.0000  0.0000  0.0000  0.0000      0.0000  0.0000  0.0000  0.0000  0.0000  0.0000  0.0000  0.0000  0.0000  0.0000
  o =  0.4481  v =  0.0000  0.0000  0.0000  1.0000  0.0000  0.0000  0.0000  0.0000  0.0000  0.0000      0.0000  0.0000  0.0000  0.0000  0.0000  0.0000  0.0000  0.0000  0.0000  0.0000
  o =  0.4481  v =  0.0000  0.0000  0.0000  0.0000  1.0000  0.0000  0.0000  0.0000  0.0000  0.0000      0.0000  0.0000  0.0000  0.0000  0.0000  0.0000  0.0000  0.0000  0.0000  0.0000
atom =  25  type =  2  l = 2
 
 onsite density matrix
 
spin component  1
 
  0.4481  0.0000  0.0000  0.0000  0.0000
  0.0000  0.4481  0.0000  0.0000  0.0000
  0.0000  0.0000  0.4481  0.0000  0.0000
  0.0000  0.0000  0.0000  0.4481  0.0000
  0.0000  0.0000  0.0000  0.0000  0.4481
 
spin component  2
 
  0.1991  0.0000  0.0000  0.0000  0.0000
  0.0000  0.1991  0.0000  0.0000  0.0000
  0.0000  0.0000  0.1991  0.0000  0.0000
  0.0000  0.0000  0.0000  0.1991  0.0000
[...]
  o =  0.2500  v =  0.0000  0.0000  0.0000  0.0000  0.0000  0.0271  0.9973  0.0166 -0.0665 -0.0070      0.0000  0.0000  0.0000  0.0000  0.0000  0.0000  0.0000  0.0000  0.0000  0.0000
  o =  0.2654  v = -0.1556  0.9555  0.2209 -0.0596 -0.1022  0.0000  0.0000  0.0000  0.0000  0.0000      0.0000  0.0000  0.0000  0.0000  0.0000  0.0000  0.0000  0.0000  0.0000  0.0000
  o =  0.2901  v =  0.0000  0.0000  0.0000  0.0000  0.0000 -0.3349  0.0255 -0.8052 -0.0066  0.4886      0.0000  0.0000  0.0000  0.0000  0.0000  0.0000  0.0000  0.0000  0.0000  0.0000
  o =  0.3097  v =  0.7866  0.2684 -0.5018 -0.0200  0.2386  0.0000  0.0000  0.0000  0.0000  0.0000      0.0000  0.0000  0.0000  0.0000  0.0000  0.0000  0.0000  0.0000  0.0000  0.0000
  o =  0.3437  v = -0.5902  0.1044 -0.6434  0.0137  0.4761  0.0000  0.0000  0.0000  0.0000  0.0000      0.0000  0.0000  0.0000  0.0000  0.0000  0.0000  0.0000  0.0000  0.0000  0.0000
  o =  0.5726  v =  0.0000  0.0000  0.0000  0.0000  0.0000 -0.0720  0.0041 -0.4952 -0.0003 -0.8658      0.0000  0.0000  0.0000  0.0000  0.0000  0.0000  0.0000  0.0000  0.0000  0.0000
  o =  0.5968  v = -0.0925  0.0175 -0.5342 -0.0178 -0.8399  0.0000  0.0000  0.0000  0.0000  0.0000      0.0000  0.0000  0.0000  0.0000  0.0000  0.0000  0.0000  0.0000  0.0000  0.0000
  o =  0.8102  v = -0.0129 -0.0614 -0.0025 -0.9978  0.0228  0.0000  0.0000  0.0000  0.0000  0.0000      0.0000  0.0000  0.0000  0.0000  0.0000  0.0000  0.0000  0.0000  0.0000  0.0000
atom =  21  type =  2  l = 2
 
 onsite density matrix
 
spin component  1
 
  0.4542  0.0646 -0.0243  0.0171  0.0051
  0.0646  0.3596 -0.0113 -0.2636 -0.0003
 -0.0243 -0.0113  0.3028 -0.0063  0.0233
  0.0171 -0.2636 -0.0063  0.7671 -0.0006
  0.0051 -0.0003  0.0233 -0.0006  0.3252
 
spin component  2
 
  0.1533  0.0017  0.0022  0.0114 -0.0024
  0.0017  0.1665 -0.0069  0.0069  0.0031
  0.0022 -0.0069  0.2614 -0.0075  0.0258
  0.0114  0.0069 -0.0075  0.1279 -0.0109
 -0.0024  0.0031  0.0258 -0.0109  0.2922
 
 occupancies and eigenvectors
 
  o =  0.1220  v =  0.0000  0.0000  0.0000  0.0000  0.0000  0.3314  0.1288 -0.0392 -0.9324 -0.0517      0.0000  0.0000  0.0000  0.0000  0.0000  0.0000  0.0000  0.0000  0.0000  0.0000
  o =  0.1558  v =  0.0000  0.0000  0.0000  0.0000  0.0000  0.8952 -0.3500 -0.0353  0.2685  0.0518      0.0000  0.0000  0.0000  0.0000  0.0000  0.0000  0.0000  0.0000  0.0000  0.0000
  o =  0.1681  v =  0.0000  0.0000  0.0000  0.0000  0.0000  0.2961  0.9232  0.0833  0.2301 -0.0149      0.0000  0.0000  0.0000  0.0000  0.0000  0.0000  0.0000  0.0000  0.0000  0.0000
  o =  0.2120  v = -0.2543  0.8681  0.0686  0.4208  0.0015  0.0000  0.0000  0.0000  0.0000  0.0000      0.0000  0.0000  0.0000  0.0000  0.0000  0.0000  0.0000  0.0000  0.0000  0.0000
  o =  0.2475  v =  0.0000  0.0000  0.0000  0.0000  0.0000  0.0297 -0.0927  0.8636 -0.0111 -0.4946      0.0000  0.0000  0.0000  0.0000  0.0000  0.0000  0.0000  0.0000  0.0000  0.0000
  o =  0.2849  v = -0.1455  0.0206 -0.8478  0.0060  0.5096  0.0000  0.0000  0.0000  0.0000  0.0000      0.0000  0.0000  0.0000  0.0000  0.0000  0.0000  0.0000  0.0000  0.0000  0.0000
  o =  0.3079  v =  0.0000  0.0000  0.0000  0.0000  0.0000 -0.0117 -0.0085  0.4945 -0.0741  0.8659      0.0000  0.0000  0.0000  0.0000  0.0000  0.0000  0.0000  0.0000  0.0000  0.0000
  o =  0.3393  v =  0.0780 -0.0162  0.5034 -0.0046  0.8604  0.0000  0.0000  0.0000  0.0000  0.0000      0.0000  0.0000  0.0000  0.0000  0.0000  0.0000  0.0000  0.0000  0.0000  0.0000
  o =  0.4757  v =  0.9525  0.2222 -0.1524  0.1419  0.0077  0.0000  0.0000  0.0000  0.0000  0.0000      0.0000  0.0000  0.0000  0.0000  0.0000  0.0000  0.0000  0.0000  0.0000  0.0000
  o =  0.8970  v = -0.0301 -0.4432  0.0002  0.8959 -0.0010  0.0000  0.0000  0.0000  0.0000  0.0000      0.0000  0.0000  0.0000  0.0000  0.0000  0.0000  0.0000  0.0000  0.0000  0.0000
atom =  22  type =  2  l = 2
 
 onsite density matrix
 
spin component  1
 
  0.2596  0.0069  0.0301  0.0762  0.0070
  0.0069  0.2528 -0.0064  0.0468  0.0300
  0.0301 -0.0064  0.3646 -0.0093  0.0888
  0.0762  0.0468 -0.0093  0.8622  0.0059
  0.0070  0.0300  0.0888  0.0059  0.4799
 
spin component  2
 
  0.2270  0.0018  0.0294 -0.0083  0.0078
  0.0018  0.2277 -0.0044 -0.0133  0.0281
  0.0294 -0.0044  0.3412  0.0004  0.0905
 -0.0083 -0.0133  0.0004  0.1063 -0.0041
  0.0078  0.0281  0.0905 -0.0041  0.4603
 
 occupancies and eigenvectors
 
  o =  0.1043  v =  0.0000  0.0000  0.0000  0.0000  0.0000 -0.0675 -0.1046  0.0096 -0.9922 -0.0041      0.0000  0.0000  0.0000  0.0000  0.0000  0.0000  0.0000  0.0000  0.0000  0.0000
  o =  0.2153  v =  0.0000  0.0000  0.0000  0.0000  0.0000 -0.7540  0.5606  0.3061 -0.0042 -0.1533      0.0000  0.0000  0.0000  0.0000  0.0000  0.0000  0.0000  0.0000  0.0000  0.0000
  o =  0.2277  v =  0.0000  0.0000  0.0000  0.0000  0.0000 -0.5915 -0.7893  0.0410  0.1234  0.1012      0.0000  0.0000  0.0000  0.0000  0.0000  0.0000  0.0000  0.0000  0.0000  0.0000
  o =  0.2366  v = -0.7018  0.6118  0.3183  0.0461 -0.1726  0.0000  0.0000  0.0000  0.0000  0.0000      0.0000  0.0000  0.0000  0.0000  0.0000  0.0000  0.0000  0.0000  0.0000  0.0000
  o =  0.2473  v = -0.6367 -0.7509  0.0670  0.1363  0.0872  0.0000  0.0000  0.0000  0.0000  0.0000      0.0000  0.0000  0.0000  0.0000  0.0000  0.0000  0.0000  0.0000  0.0000  0.0000
  o =  0.3026  v =  0.0000  0.0000  0.0000  0.0000  0.0000  0.2678 -0.2131  0.8254  0.0141 -0.4487      0.0000  0.0000  0.0000  0.0000  0.0000  0.0000  0.0000  0.0000  0.0000  0.0000
  o =  0.3283  v = -0.2866  0.2225 -0.8172  0.0023  0.4478  0.0000  0.0000  0.0000  0.0000  0.0000      0.0000  0.0000  0.0000  0.0000  0.0000  0.0000  0.0000  0.0000  0.0000  0.0000
  o =  0.5125  v =  0.0000  0.0000  0.0000  0.0000  0.0000 -0.0733 -0.0798 -0.4724  0.0124 -0.8746      0.0000  0.0000  0.0000  0.0000  0.0000  0.0000  0.0000  0.0000  0.0000  0.0000
  o =  0.5314  v =  0.0690  0.0800  0.4757 -0.0294  0.8727  0.0000  0.0000  0.0000  0.0000  0.0000      0.0000  0.0000  0.0000  0.0000  0.0000  0.0000  0.0000  0.0000  0.0000  0.0000
  o =  0.8755  v = -0.1231 -0.0768  0.0080 -0.9892 -0.0209  0.0000  0.0000  0.0000  0.0000  0.0000      0.0000  0.0000  0.0000  0.0000  0.0000  0.0000  0.0000  0.0000  0.0000  0.0000
atom =  23  type =  2  l = 2
 
 onsite density matrix
 
spin component  1
 
  0.6361 -0.0006  0.0132  0.0667 -0.0021
 -0.0006  0.2541 -0.0096 -0.0053  0.0340
  0.0132 -0.0096  0.4635 -0.0041  0.0312
  0.0667 -0.0053 -0.0041  0.2560 -0.0048
 -0.0021  0.0340  0.0312 -0.0048  0.3848
 
spin component  2
 
  0.1311  0.0037 -0.0033 -0.0150  0.0065
  0.0037  0.2324 -0.0103  0.0023  0.0296
 -0.0033 -0.0103  0.4486 -0.0046  0.0318
 -0.0150  0.0023 -0.0046  0.1895  0.0065
  0.0065  0.0296  0.0318  0.0065  0.3651
 
 occupancies and eigenvectors
 
  o =  0.1270  v =  0.0000  0.0000  0.0000  0.0000  0.0000  0.9699 -0.0292  0.0157  0.2391 -0.0315      0.0000  0.0000  0.0000  0.0000  0.0000  0.0000  0.0000  0.0000  0.0000  0.0000
  o =  0.1929  v =  0.0000  0.0000  0.0000  0.0000  0.0000 -0.2406 -0.0080  0.0176  0.9700 -0.0296      0.0000  0.0000  0.0000  0.0000  0.0000  0.0000  0.0000  0.0000  0.0000  0.0000
  o =  0.2249  v =  0.0000  0.0000  0.0000  0.0000  0.0000  0.0196  0.9714  0.0771  0.0047 -0.2236      0.0000  0.0000  0.0000  0.0000  0.0000  0.0000  0.0000  0.0000  0.0000  0.0000
  o =  0.2401  v =  0.1205 -0.6800 -0.0708 -0.7032  0.1536  0.0000  0.0000  0.0000  0.0000  0.0000      0.0000  0.0000  0.0000  0.0000  0.0000  0.0000  0.0000  0.0000  0.0000  0.0000
  o =  0.2487  v =  0.1175  0.6842  0.0395 -0.6896 -0.2023  0.0000  0.0000  0.0000  0.0000  0.0000      0.0000  0.0000  0.0000  0.0000  0.0000  0.0000  0.0000  0.0000  0.0000  0.0000
  o =  0.3626  v =  0.0000  0.0000  0.0000  0.0000  0.0000 -0.0312 -0.2354  0.3082 -0.0434 -0.9202      0.0000  0.0000  0.0000  0.0000  0.0000  0.0000  0.0000  0.0000  0.0000  0.0000
  o =  0.3834  v =  0.0301  0.2633 -0.3277 -0.0184  0.9067  0.0000  0.0000  0.0000  0.0000  0.0000      0.0000  0.0000  0.0000  0.0000  0.0000  0.0000  0.0000  0.0000  0.0000  0.0000
  o =  0.4594  v =  0.0000  0.0000  0.0000  0.0000  0.0000 -0.0030 -0.0018  0.9479 -0.0082  0.3184      0.0000  0.0000  0.0000  0.0000  0.0000  0.0000  0.0000  0.0000  0.0000  0.0000
  o =  0.4740  v =  0.0549 -0.0123 -0.9390  0.0422 -0.3367  0.0000  0.0000  0.0000  0.0000  0.0000      0.0000  0.0000  0.0000  0.0000  0.0000  0.0000  0.0000  0.0000  0.0000  0.0000
  o =  0.6483  v = -0.9837  0.0058 -0.0664 -0.1667  0.0036  0.0000  0.0000  0.0000  0.0000  0.0000      0.0000  0.0000  0.0000  0.0000  0.0000  0.0000  0.0000  0.0000  0.0000  0.0000
atom =  24  type =  2  l = 2
 
 onsite density matrix
 
spin component  1
 
  0.1877 -0.0976 -0.0092  0.0386  0.0103
 -0.0976  0.8709  0.0240  0.0132  0.0039
 -0.0092  0.0240  0.2734 -0.0097  0.0151
  0.0386  0.0132 -0.0097  0.8280  0.0216
  0.0103  0.0039  0.0151  0.0216  0.3095
 
spin component  2
 
  0.1152  0.0023  0.0039 -0.0028  0.0020
  0.0023  0.0983 -0.0082 -0.0056  0.0049
  0.0039 -0.0082  0.2390  0.0093  0.0168
 -0.0028 -0.0056  0.0093  0.1113  0.0004
  0.0020  0.0049  0.0168  0.0004  0.2736
 
 occupancies and eigenvectors
 
  o =  0.0958  v =  0.0000  0.0000  0.0000  0.0000  0.0000  0.0702 -0.9472 -0.0393 -0.3089  0.0299      0.0000  0.0000  0.0000  0.0000  0.0000  0.0000  0.0000  0.0000  0.0000  0.0000
  o =  0.1097  v =  0.0000  0.0000  0.0000  0.0000  0.0000  0.5647 -0.2127 -0.0884  0.7924  0.0066      0.0000  0.0000  0.0000  0.0000  0.0000  0.0000  0.0000  0.0000  0.0000  0.0000
  o =  0.1177  v =  0.0000  0.0000  0.0000  0.0000  0.0000  0.8218  0.2287  0.0318 -0.5206 -0.0194      0.0000  0.0000  0.0000  0.0000  0.0000  0.0000  0.0000  0.0000  0.0000  0.0000
  o =  0.1706  v =  0.9842  0.1365  0.0621 -0.0571 -0.0750  0.0000  0.0000  0.0000  0.0000  0.0000      0.0000  0.0000  0.0000  0.0000  0.0000  0.0000  0.0000  0.0000  0.0000  0.0000
  o =  0.2335  v =  0.0000  0.0000  0.0000  0.0000  0.0000  0.0208 -0.0719  0.9194  0.0716 -0.3795      0.0000  0.0000  0.0000  0.0000  0.0000  0.0000  0.0000  0.0000  0.0000  0.0000
  o =  0.2672  v = -0.0757 -0.0482  0.9389  0.0352 -0.3304  0.0000  0.0000  0.0000  0.0000  0.0000      0.0000  0.0000  0.0000  0.0000  0.0000  0.0000  0.0000  0.0000  0.0000  0.0000
  o =  0.2806  v =  0.0000  0.0000  0.0000  0.0000  0.0000 -0.0195 -0.0074 -0.3800 -0.0228 -0.9245      0.0000  0.0000  0.0000  0.0000  0.0000  0.0000  0.0000  0.0000  0.0000  0.0000
  o =  0.3146  v =  0.0499 -0.0114  0.3356 -0.0366  0.9399  0.0000  0.0000  0.0000  0.0000  0.0000      0.0000  0.0000  0.0000  0.0000  0.0000  0.0000  0.0000  0.0000  0.0000  0.0000
  o =  0.8306  v =  0.0788 -0.1221 -0.0226  0.9883  0.0409  0.0000  0.0000  0.0000  0.0000  0.0000      0.0000  0.0000  0.0000  0.0000  0.0000  0.0000  0.0000  0.0000  0.0000  0.0000
  o =  0.8866  v = -0.1302  0.9818  0.0385  0.1322  0.0102  0.0000  0.0000  0.0000  0.0000  0.0000      0.0000  0.0000  0.0000  0.0000  0.0000  0.0000  0.0000  0.0000  0.0000  0.0000
atom =  25  type =  2  l = 2
 
 onsite density matrix
 
spin component  1
 
  0.3291 -0.0942 -0.0276 -0.1381 -0.0351
 -0.0942  0.6480  0.0007 -0.1184 -0.0124
 -0.0276  0.0007  0.2732  0.0184  0.0111
 -0.1381 -0.1184  0.0184  0.7970  0.0054
 -0.0351 -0.0124  0.0111  0.0054  0.3303
 
spin component  2
 
  0.1132  0.0028  0.0076  0.0110  0.0071
  0.0028  0.1393  0.0007  0.0182  0.0001
  0.0076  0.0007  0.2389  0.0045 -0.0009
  0.0110  0.0182  0.0045  0.1272  0.0042
  0.0071  0.0001 -0.0009  0.0042  0.2757
 
 occupancies and eigenvectors
 
  o =  0.1053  v =  0.0000  0.0000  0.0000  0.0000  0.0000  0.7697  0.2512 -0.0255 -0.5861 -0.0180      0.0000  0.0000  0.0000  0.0000  0.0000  0.0000  0.0000  0.0000  0.0000  0.0000
  o =  0.1194  v =  0.0000  0.0000  0.0000  0.0000  0.0000 -0.6017  0.5789  0.0554 -0.5458  0.0418      0.0000  0.0000  0.0000  0.0000  0.0000  0.0000  0.0000  0.0000  0.0000  0.0000
  o =  0.1539  v =  0.0000  0.0000  0.0000  0.0000  0.0000 -0.1980 -0.7755  0.0558 -0.5960  0.0334      0.0000  0.0000  0.0000  0.0000  0.0000  0.0000  0.0000  0.0000  0.0000  0.0000
  o =  0.2337  v =  0.8125  0.2606  0.3751  0.2391  0.2721  0.0000  0.0000  0.0000  0.0000  0.0000      0.0000  0.0000  0.0000  0.0000  0.0000  0.0000  0.0000  0.0000  0.0000  0.0000
  o =  0.2396  v =  0.0000  0.0000  0.0000  0.0000  0.0000  0.0647  0.0177  0.9965  0.0490  0.0057      0.0000  0.0000  0.0000  0.0000  0.0000  0.0000  0.0000  0.0000  0.0000  0.0000
  o =  0.2738  v =  0.2346  0.1081 -0.8989  0.1145  0.3348  0.0000  0.0000  0.0000  0.0000  0.0000      0.0000  0.0000  0.0000  0.0000  0.0000  0.0000  0.0000  0.0000  0.0000  0.0000
  o =  0.2761  v =  0.0000  0.0000  0.0000  0.0000  0.0000  0.0453  0.0061 -0.0104  0.0320  0.9984      0.0000  0.0000  0.0000  0.0000  0.0000  0.0000  0.0000  0.0000  0.0000  0.0000
  o =  0.3462  v =  0.3196  0.1221 -0.2186  0.1497 -0.9015  0.0000  0.0000  0.0000  0.0000  0.0000      0.0000  0.0000  0.0000  0.0000  0.0000  0.0000  0.0000  0.0000  0.0000  0.0000
  o =  0.6482  v =  0.3957 -0.8623 -0.0466 -0.3122 -0.0171  0.0000  0.0000  0.0000  0.0000  0.0000      0.0000  0.0000  0.0000  0.0000  0.0000  0.0000  0.0000  0.0000  0.0000  0.0000
  o =  0.8757  v = -0.1616 -0.4025  0.0349  0.8999  0.0292  0.0000  0.0000  0.0000  0.0000  0.0000      0.0000  0.0000  0.0000  0.0000  0.0000  0.0000  0.0000  0.0000  0.0000  0.0000
atom =  26  type =  3  l = 0
 
 onsite density matrix
 
spin component  1
 
  0.7869
 
spin component  2
 
  0.7881
 
 occupancies and eigenvectors
 
  o =  0.7869  v =  1.0000  0.0000      0.0000  0.0000
  o =  0.7881  v =  0.0000  1.0000      0.0000  0.0000
atom =  27  type =  3  l = 0
 
 onsite density matrix
 
spin component  1
 
  0.7771
 
spin component  2
 
  0.7772
 
 occupancies and eigenvectors
 
  o =  0.7771  v =  1.0000  0.0000      0.0000  0.0000
  o =  0.7772  v =  0.0000  1.0000      0.0000  0.0000
atom =  28  type =  3  l = 0
 
 onsite density matrix
 
spin component  1
 
  0.7831
 
spin component  2
 
  0.7826
 
 occupancies and eigenvectors
 
  o =  0.7826  v =  0.0000  1.0000      0.0000  0.0000
  o =  0.7831  v =  1.0000  0.0000      0.0000  0.0000
atom =  29  type =  3  l = 0
 
 onsite density matrix
 
spin component  1
 
  0.7684
 
spin component  2
 
  0.7686
 
 occupancies and eigenvectors
 
  o =  0.7684  v =  1.0000  0.0000      0.0000  0.0000
  o =  0.7686  v =  0.0000  1.0000      0.0000  0.0000
atom =  30  type =  3  l = 0
 
 onsite density matrix
 
spin component  1
 
  0.7816
 
spin component  2
 
  0.7821
 
 occupancies and eigenvectors
 
  o =  0.7816  v =  1.0000  0.0000      0.0000  0.0000
  o =  0.7821  v =  0.0000  1.0000      0.0000  0.0000
atom =  31  type =  3  l = 0
 
 onsite density matrix
 
spin component  1
 
  0.7757
 
spin component  2
 
  0.7762
 
 occupancies and eigenvectors
 
  o =  0.7757  v =  1.0000  0.0000      0.0000  0.0000
  o =  0.7762  v =  0.0000  1.0000      0.0000  0.0000
atom =  32  type =  3  l = 0
 
 onsite density matrix
 
spin component  1
 
  0.8067
 
spin component  2
 
  0.8086
 
 occupancies and eigenvectors
 
  o =  0.8067  v =  1.0000  0.0000      0.0000  0.0000
  o =  0.8086  v =  0.0000  1.0000      0.0000  0.0000
atom =  33  type =  3  l = 0
 
 onsite density matrix
 
spin component  1
 
  0.7775
 
spin component  2
 
  0.7784
 
 occupancies and eigenvectors
 
  o =  0.7775  v =  1.0000  0.0000      0.0000  0.0000
  o =  0.7784  v =  0.0000  1.0000      0.0000  0.0000
atom =  34  type =  3  l = 0
 
 onsite density matrix
 
spin component  1
 
  0.7790
 
spin component  2
 
  0.7804
 
 occupancies and eigenvectors
 
  o =  0.7790  v =  1.0000  0.0000      0.0000  0.0000
  o =  0.7804  v =  0.0000  1.0000      0.0000  0.0000
atom =  35  type =  3  l = 0
 
 onsite density matrix
 
spin component  1
 
  0.7913
 
spin component  2
 
  0.7916
 
 occupancies and eigenvectors
 
  o =  0.7913  v =  1.0000  0.0000      0.0000  0.0000
  o =  0.7916  v =  0.0000  1.0000      0.0000  0.0000
atom =  36  type =  3  l = 0
 
 onsite density matrix
 
spin component  1
 
  0.7829
 
spin component  2
 
  0.7837
 
 occupancies and eigenvectors
 
  o =  0.7829  v =  1.0000  0.0000      0.0000  0.0000
  o =  0.7837  v =  0.0000  1.0000      0.0000  0.0000
atom =  37  type =  3  l = 0
 
 onsite density matrix
 
spin component  1
 
  0.7850
 
spin component  2
 
  0.7852
 
 occupancies and eigenvectors
 
  o =  0.7850  v =  1.0000  0.0000      0.0000  0.0000
  o =  0.7852  v =  0.0000  1.0000      0.0000  0.0000
atom =  38  type =  3  l = 0
 
 onsite density matrix
 
spin component  1
 
  0.7819
 
spin component  2
 
  0.7812
 
 occupancies and eigenvectors
 
  o =  0.7812  v =  0.0000  1.0000      0.0000  0.0000
  o =  0.7819  v =  1.0000  0.0000      0.0000  0.0000
atom =  39  type =  3  l = 0
 
 onsite density matrix
 
spin component  1
 
  0.7805
 
spin component  2
 
  0.7811
 
 occupancies and eigenvectors
 
  o =  0.7805  v =  1.0000  0.0000      0.0000  0.0000
  o =  0.7811  v =  0.0000  1.0000      0.0000  0.0000
atom =  40  type =  3  l = 0
 
 onsite density matrix
 
spin component  1
 
  0.8011
 
spin component  2
 
  0.8019
 
 occupancies and eigenvectors
 
  o =  0.8011  v =  1.0000  0.0000      0.0000  0.0000
  o =  0.8019  v =  0.0000  1.0000      0.0000  0.0000
atom =  41  type =  3  l = 0
 
 onsite density matrix
 
spin component  1
 
  0.7812
 
spin component  2
 
  0.7825
 
 occupancies and eigenvectors
 
  o =  0.7812  v =  1.0000  0.0000      0.0000  0.0000
  o =  0.7825  v =  0.0000  1.0000      0.0000  0.0000
atom =  42  type =  3  l = 0
 
 onsite density matrix
 
spin component  1
 
  0.7776
 
spin component  2
 
  0.7777
 
 occupancies and eigenvectors
 
  o =  0.7776  v =  1.0000  0.0000      0.0000  0.0000
  o =  0.7777  v =  0.0000  1.0000      0.0000  0.0000
atom =  43  type =  3  l = 0
 
 onsite density matrix
 
spin component  1
 
  0.7839
 
spin component  2
 
  0.7857
 
 occupancies and eigenvectors
 
  o =  0.7839  v =  1.0000  0.0000      0.0000  0.0000
  o =  0.7857  v =  0.0000  1.0000      0.0000  0.0000
atom =  44  type =  3  l = 0
 
 onsite density matrix
 
spin component  1
 
  0.7776
 
spin component  2
 
  0.7776
 
 occupancies and eigenvectors
 
  o =  0.7776  v =  1.0000  0.0000      0.0000  0.0000
  o =  0.7776  v =  0.0000  1.0000      0.0000  0.0000
atom =  45  type =  3  l = 0
 
 onsite density matrix
 
spin component  1
 
  0.7797
 
spin component  2
 
  0.7798
 
 occupancies and eigenvectors
 
  o =  0.7797  v =  1.0000  0.0000      0.0000  0.0000
  o =  0.7798  v =  0.0000  1.0000      0.0000  0.0000
atom =  46  type =  3  l = 0
 
 onsite density matrix
 
spin component  1
 
  0.7785
 
spin component  2
 
  0.7779
 
 occupancies and eigenvectors
 
  o =  0.7779  v =  0.0000  1.0000      0.0000  0.0000
  o =  0.7785  v =  1.0000  0.0000      0.0000  0.0000
atom =  47  type =  3  l = 0
 
 onsite density matrix
 
spin component  1
 
  0.7796
 
spin component  2
 
  0.7789
 
 occupancies and eigenvectors
 
  o =  0.7789  v =  0.0000  1.0000      0.0000  0.0000
  o =  0.7796  v =  1.0000  0.0000      0.0000  0.0000
atom =  48  type =  3  l = 0
 
 onsite density matrix
 
spin component  1
 
  0.8052
 
spin component  2
 
  0.8064
 
 occupancies and eigenvectors
 
  o =  0.8052  v =  1.0000  0.0000      0.0000  0.0000
  o =  0.8064  v =  0.0000  1.0000      0.0000  0.0000
atom =  49  type =  3  l = 0
 
 onsite density matrix
 
spin component  1
 
  0.7810
 
spin component  2
 
  0.7817
 
 occupancies and eigenvectors
 
  o =  0.7810  v =  1.0000  0.0000      0.0000  0.0000
  o =  0.7817  v =  0.0000  1.0000      0.0000  0.0000
atom =  50  type =  3  l = 0
 
 onsite density matrix
 
spin component  1
 
  0.7758
 
spin component  2
 
  0.7759
 
 occupancies and eigenvectors
 
  o =  0.7758  v =  1.0000  0.0000      0.0000  0.0000
  o =  0.7759  v =  0.0000  1.0000      0.0000  0.0000
