       N       E                     dE             d eps       ncg     rms          rms(c)
DAV:   1     0.163395856836E+05    0.16340E+05   -0.58138E+05 11536   0.231E+03
DAV:   2     0.129464174519E+04   -0.15045E+05   -0.14571E+05 10368   0.735E+02
DAV:   3    -0.326317528853E+03   -0.16210E+04   -0.13616E+04 10528   0.257E+02
DAV:   4    -0.420379194562E+03   -0.94062E+02   -0.91520E+02 11064   0.660E+01
DAV:   5    -0.421909959567E+03   -0.15308E+01   -0.15293E+01 11152   0.821E+00    0.661E+01
DAV:   6    -0.378630024301E+03    0.43280E+02   -0.48622E+02 10904   0.697E+01    0.385E+01
DAV:   7    -0.361194772737E+03    0.17435E+02   -0.77347E+01 10856   0.282E+01    0.646E+00
DAV:   8    -0.361014821086E+03    0.17995E+00   -0.82245E-01 10976   0.212E+00    0.253E+00
DAV:   9    -0.360979320890E+03    0.35500E-01   -0.69214E-02 13032   0.529E-01    0.519E-01
DAV:  10    -0.360982970054E+03   -0.36492E-02   -0.66901E-03 11464   0.156E-01    0.152E-01
DAV:  11    -0.360983282793E+03   -0.31274E-03   -0.65317E-04 11096   0.675E-02    0.579E-02
DAV:  12    -0.360983328578E+03   -0.45785E-04   -0.72341E-05 10784   0.191E-02    0.112E-02
DAV:  13    -0.360983328408E+03    0.17002E-06   -0.60909E-06  9008   0.542E-03
   1 F= -.36098333E+03 E0= -.36090045E+03  d E =-.248625E+00  mag=    35.3433
 Found     1 degrees of freedom:
       N       E                     dE             d eps       ncg     rms          rms(c)
DAV:   1    -0.360887468956E+03    0.95860E-01   -0.22060E+00 20520   0.150E+01    0.529E-01
DAV:   2    -0.360982010621E+03   -0.94542E-01   -0.93143E-01 16544   0.169E+00    0.942E-01
DAV:   3    -0.360984612113E+03   -0.26015E-02   -0.34452E-02 19400   0.106E+00    0.978E-01
DAV:   4    -0.360982880413E+03    0.17317E-02   -0.64964E-03 18720   0.609E-01    0.604E-01
DAV:   5    -0.360981761903E+03    0.11185E-02   -0.12485E-03 17416   0.332E-01    0.178E-01
DAV:   6    -0.360981743354E+03    0.18549E-04   -0.29032E-04 20048   0.908E-02    0.163E-01
DAV:   7    -0.360981651413E+03    0.91940E-04   -0.80852E-05 17504   0.736E-02    0.130E-01
DAV:   8    -0.360981624957E+03    0.26456E-04   -0.10027E-04 18616   0.923E-02    0.139E-01
DAV:   9    -0.360981565686E+03    0.59271E-04   -0.13212E-04 19792   0.110E-01    0.111E-01
DAV:  10    -0.360981519467E+03    0.46219E-04   -0.82437E-05 21584   0.726E-02    0.194E-02
DAV:  11    -0.360981525055E+03   -0.55873E-05   -0.22692E-05 20688   0.272E-02    0.413E-02
DAV:  12    -0.360981520657E+03    0.43979E-05   -0.91291E-06 16736   0.229E-02    0.845E-03
DAV:  13    -0.360981521053E+03   -0.39642E-06   -0.12623E-06  8368   0.998E-03
   2 F= -.36098152E+03 E0= -.36089864E+03  d E =-.248652E+00  mag=    35.3445
       N       E                     dE             d eps       ncg     rms          rms(c)
DAV:   1    -0.360638104220E+03    0.34342E+00   -0.77846E+00 20640   0.275E+01    0.101E+00
DAV:   2    -0.360990660783E+03   -0.35256E+00   -0.33745E+00 16552   0.312E+00    0.253E+00
DAV:   3    -0.360987047279E+03    0.36135E-02   -0.16697E-01 18824   0.201E+00    0.133E+00
DAV:   4    -0.360989855277E+03   -0.28080E-02   -0.25676E-02 19712   0.120E+00    0.155E+00
DAV:   5    -0.360982439840E+03    0.74154E-02   -0.80804E-03 16864   0.847E-01    0.384E-01
DAV:   6    -0.360982279034E+03    0.16081E-03   -0.13122E-03 19120   0.206E-01    0.297E-01
DAV:   7    -0.360982031027E+03    0.24801E-03   -0.38519E-04 17600   0.148E-01    0.267E-01
DAV:   8    -0.360981838383E+03    0.19264E-03   -0.37341E-04 18112   0.169E-01    0.236E-01
DAV:   9    -0.360981862494E+03   -0.24111E-04   -0.53949E-04 18320   0.211E-01    0.297E-01
DAV:  10    -0.360981598030E+03    0.26446E-03   -0.49493E-04 21008   0.194E-01    0.165E-01
DAV:  11    -0.360981517265E+03    0.80765E-04   -0.17560E-04 20344   0.978E-02    0.264E-02
DAV:  12    -0.360981521991E+03   -0.47263E-05   -0.39673E-05 18616   0.245E-02    0.249E-02
DAV:  13    -0.360981521321E+03    0.67032E-06   -0.76018E-06 16584   0.226E-02
   3 F= -.36098152E+03 E0= -.36089863E+03  d E =-.248661E+00  mag=    35.3450
