<?xml version="1.0" encoding="ISO-8859-1"?>
<modeling>
 <generator>
  <i name="program" type="string">vasp </i>
  <i name="version" type="string">5.4.1  </i>
  <i name="subversion" type="string">05Feb16 (build Oct 12 2016 17:31:35) complex                          parallel </i>
  <i name="platform" type="string">IFC91_ompi </i>
  <i name="date" type="string">2020 09 07 </i>
  <i name="time" type="string">22:42:49 </i>
 </generator>
 <incar>
  <i type="string" name="SYSTEM"> phonon of Zr bcc - omiga</i>
  <i type="string" name="PREC">h</i>
  <i type="int" name="ISPIN">     2</i>
  <i type="int" name="IBRION">     6</i>
  <i name="EDIFF">      0.00000100</i>
  <i type="int" name="NSW">     1</i>
  <v name="MAGMOM">      1.00000000      1.00000000      1.00000000      1.00000000      1.00000000      1.00000000      1.00000000      1.00000000      1.00000000      1.00000000      1.00000000      1.00000000      1.00000000      1.00000000      1.00000000      1.00000000      1.00000000      1.00000000      1.00000000      1.00000000
      1.00000000      1.00000000      1.00000000      1.00000000      1.00000000      1.00000000      1.00000000      1.00000000      1.00000000      1.00000000      1.00000000      1.00000000      1.00000000      1.00000000      1.00000000      1.00000000      1.00000000      1.00000000      1.00000000      1.00000000
      1.00000000      1.00000000      1.00000000      1.00000000      1.00000000      1.00000000      1.00000000      1.00000000      1.00000000      1.00000000      1.00000000      1.00000000      1.00000000      1.00000000      1.00000000      1.00000000      1.00000000      1.00000000      1.00000000      1.00000000
      1.00000000      1.00000000      1.00000000      1.00000000</v>
  <i type="string" name="LREAL">Auto</i>
  <i type="int" name="ISMEAR">     1</i>
  <i type="int" name="NWRITE">     0</i>
  <v type="int" name="KPOINT_BSE">    -1     0     0     0</v>
 </incar>
 <kpoints>
  <generation param="Gamma">
   <v type="int" name="divisions">       3        3        3 </v>
   <v name="usershift">      0.00000000       0.00000000       0.00000000 </v>
   <v name="genvec1">      0.33333333       0.00000000       0.00000000 </v>
   <v name="genvec2">      0.00000000       0.33333333       0.00000000 </v>
   <v name="genvec3">      0.00000000       0.00000000       0.33333333 </v>
   <v name="shift">      0.00000000       0.00000000       0.00000000 </v>
  </generation>
  <varray name="kpointlist" >
   <v>       0.00000000       0.00000000       0.00000000 </v>
   <v>       0.33333333       0.00000000       0.00000000 </v>
   <v>       0.33333333       0.33333333       0.00000000 </v>
   <v>      -0.33333333       0.33333333       0.00000000 </v>
  </varray>
  <varray name="weights" >
   <v>       0.03703704 </v>
   <v>       0.29629630 </v>
   <v>       0.22222222 </v>
   <v>       0.44444444 </v>
  </varray>
 </kpoints>
 <parameters>
  <separator name="general" >
   <i type="string" name="SYSTEM">phonon of Zr bcc - omiga</i>
   <i type="logical" name="LCOMPAT"> F  </i>
  </separator>
  <separator name="electronic" >
   <i type="string" name="PREC">h</i>
   <i name="ENMAX">    459.93125000</i>
   <i name="ENAUG">    703.44300000</i>
   <i name="EDIFF">      0.00000100</i>
   <i type="int" name="IALGO">    38</i>
   <i type="int" name="IWAVPR">    11</i>
   <i type="int" name="NBANDS">   648</i>
   <i name="NELECT">   1024.00000000</i>
   <i type="int" name="TURBO">     0</i>
   <i type="int" name="IRESTART">     0</i>
   <i type="int" name="NREBOOT">     0</i>
   <i type="int" name="NMIN">     0</i>
   <i name="EREF">      0.00000000</i>
   <separator name="electronic smearing" >
    <i type="int" name="ISMEAR">     1</i>
    <i name="SIGMA">      0.20000000</i>
    <i name="KSPACING">      0.50000000</i>
    <i type="logical" name="KGAMMA"> T  </i>
   </separator>
   <separator name="electronic projectors" >
    <i type="logical" name="LREAL"> T  </i>
    <v name="ROPT">     -0.00040000</v>
    <i type="int" name="LMAXPAW">  -100</i>
    <i type="int" name="LMAXMIX">     2</i>
    <i type="logical" name="NLSPLINE"> F  </i>
   </separator>
   <separator name="electronic startup" >
    <i type="int" name="ISTART">     0</i>
    <i type="int" name="ICHARG">     2</i>
    <i type="int" name="INIWAV">     1</i>
   </separator>
   <separator name="electronic spin" >
    <i type="int" name="ISPIN">     2</i>
    <i type="logical" name="LNONCOLLINEAR"> F  </i>
    <v name="MAGMOM">      1.00000000      1.00000000      1.00000000      1.00000000      1.00000000      1.00000000      1.00000000      1.00000000      1.00000000      1.00000000      1.00000000      1.00000000      1.00000000      1.00000000      1.00000000      1.00000000      1.00000000      1.00000000      1.00000000      1.00000000
      1.00000000      1.00000000      1.00000000      1.00000000      1.00000000      1.00000000      1.00000000      1.00000000      1.00000000      1.00000000      1.00000000      1.00000000      1.00000000      1.00000000      1.00000000      1.00000000      1.00000000      1.00000000      1.00000000      1.00000000
      1.00000000      1.00000000      1.00000000      1.00000000      1.00000000      1.00000000      1.00000000      1.00000000      1.00000000      1.00000000      1.00000000      1.00000000      1.00000000      1.00000000      1.00000000      1.00000000      1.00000000      1.00000000      1.00000000      1.00000000
      1.00000000      1.00000000      1.00000000      1.00000000</v>
    <i name="NUPDOWN">     -1.00000000</i>
    <i type="logical" name="LSORBIT"> F  </i>
    <v name="SAXIS">      0.00000000      0.00000000      1.00000000</v>
    <i type="logical" name="LSPIRAL"> F  </i>
    <v name="QSPIRAL">      0.00000000      0.00000000      0.00000000</v>
    <i type="logical" name="LZEROZ"> F  </i>
   </separator>
   <separator name="electronic exchange-correlation" >
    <i type="logical" name="LASPH"> F  </i>
    <i type="logical" name="LMETAGGA"> F  </i>
   </separator>
   <separator name="electronic convergence" >
    <i type="int" name="NELM">    60</i>
    <i type="int" name="NELMDL">     0</i>
    <i type="int" name="NELMIN">     2</i>
    <i name="ENINI">    459.93125000</i>
    <separator name="electronic convergence detail" >
     <i type="logical" name="LDIAG"> T  </i>
     <i type="logical" name="LSUBROT"> F  </i>
     <i name="WEIMIN">      0.00100000</i>
     <i name="EBREAK">      0.00000000</i>
     <i name="DEPER">      0.30000000</i>
     <i type="int" name="NRMM">     4</i>
     <i name="TIME">      0.40000000</i>
    </separator>
   </separator>
   <separator name="electronic mixer" >
    <i name="AMIX">      0.40000000</i>
    <i name="BMIX">      1.00000000</i>
    <i name="AMIN">      0.10000000</i>
    <i name="AMIX_MAG">      1.60000000</i>
    <i name="BMIX_MAG">      1.00000000</i>
    <separator name="electronic mixer details" >
     <i type="int" name="IMIX">     4</i>
     <i type="logical" name="MIXFIRST"> F  </i>
     <i type="int" name="MAXMIX">   -45</i>
     <i name="WC">    100.00000000</i>
     <i type="int" name="INIMIX">     1</i>
     <i type="int" name="MIXPRE">     1</i>
     <i type="int" name="MREMOVE">     5</i>
    </separator>
   </separator>
   <separator name="electronic dipolcorrection" >
    <i type="logical" name="LDIPOL"> F  </i>
    <i type="logical" name="LMONO"> F  </i>
    <i type="int" name="IDIPOL">     0</i>
    <i name="EPSILON">      1.00000000</i>
    <v name="DIPOL">   -100.00000000   -100.00000000   -100.00000000</v>
    <i name="EFIELD">      0.00000000</i>
   </separator>
  </separator>
  <separator name="grids" >
   <i type="int" name="NGX">    70</i>
   <i type="int" name="NGY">    70</i>
   <i type="int" name="NGZ">    70</i>
   <i type="int" name="NGXF">   112</i>
   <i type="int" name="NGYF">   112</i>
   <i type="int" name="NGZF">   112</i>
   <i type="logical" name="ADDGRID"> F  </i>
  </separator>
  <separator name="ionic" >
   <i type="int" name="NSW">   805</i>
   <i type="int" name="IBRION">     6</i>
   <i type="int" name="ISIF">     2</i>
   <i name="PSTRESS">      0.00000000</i>
   <i name="EDIFFG">      0.00001000</i>
   <i type="int" name="NFREE">     2</i>
   <i name="POTIM">      0.50000000</i>
   <i name="SMASS">     -3.00000000</i>
   <i name="SCALEE">      1.00000000</i>
  </separator>
  <separator name="ionic md" >
   <i name="TEBEG">      0.00010000</i>
   <i name="TEEND">      0.00010000</i>
   <i type="int" name="NBLOCK">     1</i>
   <i type="int" name="KBLOCK">     1</i>
   <i type="int" name="NPACO">   256</i>
   <i name="APACO">     16.00000000</i>
  </separator>
  <separator name="symmetry" >
   <i type="int" name="ISYM">     2</i>
   <i name="SYMPREC">      0.00001000</i>
  </separator>
  <separator name="dos" >
   <i type="logical" name="LORBIT"> F  </i>
   <v name="RWIGS">     -1.00000000</v>
   <i type="int" name="NEDOS">   301</i>
   <i name="EMIN">     10.00000000</i>
   <i name="EMAX">    -10.00000000</i>
   <i name="EFERMI">      0.00000000</i>
  </separator>
  <separator name="writing" >
   <i type="int" name="NWRITE">     0</i>
   <i type="logical" name="LWAVE"> T  </i>
   <i type="logical" name="LCHARG"> T  </i>
   <i type="logical" name="LPARD"> F  </i>
   <i type="logical" name="LVTOT"> F  </i>
   <i type="logical" name="LVHAR"> F  </i>
   <i type="logical" name="LELF"> F  </i>
   <i type="logical" name="LOPTICS"> F  </i>
   <v name="STM">      0.00000000      0.00000000      0.00000000      0.00000000      0.00000000      0.00000000      0.00000000</v>
  </separator>
  <separator name="performance" >
   <i type="int" name="NPAR">     4</i>
   <i type="int" name="NSIM">     4</i>
   <i type="int" name="NBLK">    -1</i>
   <i type="logical" name="LPLANE"> T  </i>
   <i type="logical" name="LSCALAPACK"> T  </i>
   <i type="logical" name="LSCAAWARE"> F  </i>
   <i type="logical" name="LSCALU"> F  </i>
   <i type="logical" name="LASYNC"> F  </i>
   <i type="logical" name="LORBITALREAL"> F  </i>
  </separator>
  <separator name="miscellaneous" >
   <i type="int" name="IDIOT">     3</i>
   <i type="logical" name="LMUSIC"> F  </i>
   <v name="POMASS">     58.69000000</v>
   <v name="DARWINR">      0.00000000</v>
   <v name="DARWINV">      1.00000000</v>
   <i type="logical" name="LCORR"> T  </i>
  </separator>
  <i type="logical" name="GGA_COMPAT"> T  </i>
  <i type="logical" name="LBERRY"> F  </i>
  <i type="int" name="ICORELEVEL">     0</i>
  <i type="logical" name="LDAU"> F  </i>
  <i type="int" name="I_CONSTRAINED_M">     0</i>
  <separator name="electronic exchange-correlation" >
   <i type="string" name="GGA">--</i>
   <i type="int" name="VOSKOWN">     0</i>
   <i type="logical" name="LHFCALC"> F  </i>
   <i type="string" name="PRECFOCK"></i>
   <i type="logical" name="LSYMGRAD"> F  </i>
   <i type="logical" name="LHFONE"> F  </i>
   <i type="logical" name="LRHFCALC"> F  </i>
   <i type="logical" name="LTHOMAS"> F  </i>
   <i type="logical" name="LMODELHF"> F  </i>
   <i name="ENCUT4O">     -1.00000000</i>
   <i type="int" name="EXXOEP">     0</i>
   <i type="int" name="FOURORBIT">     0</i>
   <i name="AEXX">      0.00000000</i>
   <i name="HFALPHA">      0.00000000</i>
   <i name="MCALPHA">      0.00000000</i>
   <i name="ALDAX">      1.00000000</i>
   <i name="AGGAX">      1.00000000</i>
   <i name="ALDAC">      1.00000000</i>
   <i name="AGGAC">      1.00000000</i>
   <i type="int" name="NKREDX">     1</i>
   <i type="int" name="NKREDY">     1</i>
   <i type="int" name="NKREDZ">     1</i>
   <i type="logical" name="SHIFTRED"> F  </i>
   <i type="logical" name="ODDONLY"> F  </i>
   <i type="logical" name="EVENONLY"> F  </i>
   <i type="int" name="LMAXFOCK">     0</i>
   <i type="int" name="NMAXFOCKAE">     0</i>
   <i type="logical" name="LFOCKAEDFT"> F  </i>
   <i name="HFSCREEN">      0.00000000</i>
   <i name="HFSCREENC">      0.00000000</i>
   <i type="int" name="NBANDSGWLOW">     0</i>
  </separator>
  <separator name="vdW DFT" >
   <i type="logical" name="LUSE_VDW"> F  </i>
   <i name="Zab_VDW">     -0.84910000</i>
   <i name="PARAM1">      0.12340000</i>
   <i name="PARAM2">      1.00000000</i>
   <i name="PARAM3">      0.00000000</i>
  </separator>
  <separator name="model GW" >
   <i type="int" name="MODEL_GW">     0</i>
   <i name="MODEL_EPS0">      5.72240693</i>
   <i name="MODEL_ALPHA">      1.00000000</i>
  </separator>
  <separator name="linear response parameters" >
   <i type="logical" name="LEPSILON"> F  </i>
   <i type="logical" name="LRPA"> F  </i>
   <i type="logical" name="LNABLA"> F  </i>
   <i type="logical" name="LVEL"> F  </i>
   <i type="int" name="KINTER">     0</i>
   <i name="CSHIFT">      0.10000000</i>
   <i name="OMEGAMAX">     -1.00000000</i>
   <i name="DEG_THRESHOLD">      0.00200000</i>
  </separator>
  <separator name="orbital magnetization" >
   <i type="logical" name="NUCIND"> F  </i>
   <v name="MAGPOS">      0.00000000      0.00000000      0.00000000</v>
   <i type="logical" name="LNICSALL"> T  </i>
   <i type="logical" name="ORBITALMAG"> F  </i>
   <i type="logical" name="LMAGBLOCH"> F  </i>
   <i type="logical" name="LCHIMAG"> F  </i>
   <i type="logical" name="LGAUGE"> T  </i>
   <i type="int" name="MAGATOM">     0</i>
   <v name="MAGDIPOL">      0.00000000      0.00000000      0.00000000</v>
   <v name="AVECCONST">      0.00000000      0.00000000      0.00000000</v>
  </separator>
  <separator name="response functions" >
   <i type="logical" name="LADDER"> F  </i>
   <i type="logical" name="LFXC"> F  </i>
   <i type="logical" name="LHARTREE"> T  </i>
   <i type="int" name="IBSE">     0</i>
   <v type="int" name="KPOINT">    -1     0     0     0</v>
   <i type="logical" name="LTCTE"> F  </i>
   <i type="logical" name="LTETE"> F  </i>
   <i type="logical" name="LTRIPLET"> F  </i>
   <i type="logical" name="LFXCEPS"> F  </i>
   <i type="logical" name="LFXHEG"> F  </i>
   <i type="int" name="NATURALO">     0</i>
   <i type="logical" name="L2ORDER"> F  </i>
   <i type="logical" name="LUSEW"> F  </i>
   <i name="ENCUTGW">     -2.00000000</i>
   <i name="ENCUTGWSOFT">     -2.00000000</i>
   <i name="ENCUTLF">     -1.00000000</i>
   <i type="int" name="LMAXMP2">    -1</i>
   <i name="SCISSOR">      0.00000000</i>
   <i type="int" name="NOMEGA">     0</i>
   <i type="int" name="NOMEGAR">     0</i>
   <i type="int" name="NBANDSGW">    -1</i>
   <i type="int" name="NBANDSO">    -1</i>
   <i type="int" name="NBANDSV">    -1</i>
   <i type="int" name="NELM">     1</i>
   <i type="int" name="NELMHF">     1</i>
   <i type="int" name="DIM">     3</i>
   <i type="int" name="ANTIRES">     0</i>
   <i name="OMEGAMAX">    -30.00000000</i>
   <i name="OMEGAMIN">    -30.00000000</i>
   <i name="OMEGATL">   -200.00000000</i>
   <i type="int" name="OMEGAGRID">     0</i>
   <i name="CSHIFT">     -0.10000000</i>
   <i type="logical" name="SELFENERGY"> F  </i>
   <i type="logical" name="LSPECTRAL"> F  </i>
   <i type="logical" name="LSPECTRALGW"> F  </i>
   <i type="logical" name="LSINGLES"> F  </i>
   <i type="logical" name="LFERMIGW"> F  </i>
   <i type="logical" name="ODDONLYGW"> F  </i>
   <i type="logical" name="EVENONLYGW"> F  </i>
   <i type="int" name="NKREDLFX">     1</i>
   <i type="int" name="NKREDLFY">     1</i>
   <i type="int" name="NKREDLFZ">     1</i>
   <i type="int" name="MAXMEM">  1800</i>
   <i type="int" name="TELESCOPE">     0</i>
   <i type="int" name="TAUPAR">     1</i>
   <i type="int" name="OMEGAPAR">    -1</i>
   <i name="LAMBDA">      1.00000000</i>
  </separator>
  <separator name="External order field" >
   <i name="OFIELD_KAPPA">      0.00000000</i>
   <v name="OFIELD_K">      0.00000000      0.00000000      0.00000000</v>
   <i name="OFIELD_Q6_NEAR">      0.00000000</i>
   <i name="OFIELD_Q6_FAR">      0.00000000</i>
   <i name="OFIELD_A">      0.00000000</i>
  </separator>
 </parameters>
 <atominfo>
  <atoms>      64 </atoms>
  <types>       1 </types>
  <array name="atoms" >
   <dimension dim="1">ion</dimension>
   <field type="string">element</field>
   <field type="int">atomtype</field>
   <set>
    <rc><c>Ni</c><c>   1</c></rc>
    <rc><c>Ni</c><c>   1</c></rc>
    <rc><c>Ni</c><c>   1</c></rc>
    <rc><c>Ni</c><c>   1</c></rc>
    <rc><c>Ni</c><c>   1</c></rc>
    <rc><c>Ni</c><c>   1</c></rc>
    <rc><c>Ni</c><c>   1</c></rc>
    <rc><c>Ni</c><c>   1</c></rc>
    <rc><c>Ni</c><c>   1</c></rc>
    <rc><c>Ni</c><c>   1</c></rc>
    <rc><c>Ni</c><c>   1</c></rc>
    <rc><c>Ni</c><c>   1</c></rc>
    <rc><c>Ni</c><c>   1</c></rc>
    <rc><c>Ni</c><c>   1</c></rc>
    <rc><c>Ni</c><c>   1</c></rc>
    <rc><c>Ni</c><c>   1</c></rc>
    <rc><c>Ni</c><c>   1</c></rc>
    <rc><c>Ni</c><c>   1</c></rc>
    <rc><c>Ni</c><c>   1</c></rc>
    <rc><c>Ni</c><c>   1</c></rc>
    <rc><c>Ni</c><c>   1</c></rc>
    <rc><c>Ni</c><c>   1</c></rc>
    <rc><c>Ni</c><c>   1</c></rc>
    <rc><c>Ni</c><c>   1</c></rc>
    <rc><c>Ni</c><c>   1</c></rc>
    <rc><c>Ni</c><c>   1</c></rc>
    <rc><c>Ni</c><c>   1</c></rc>
    <rc><c>Ni</c><c>   1</c></rc>
    <rc><c>Ni</c><c>   1</c></rc>
    <rc><c>Ni</c><c>   1</c></rc>
    <rc><c>Ni</c><c>   1</c></rc>
    <rc><c>Ni</c><c>   1</c></rc>
    <rc><c>Ni</c><c>   1</c></rc>
    <rc><c>Ni</c><c>   1</c></rc>
    <rc><c>Ni</c><c>   1</c></rc>
    <rc><c>Ni</c><c>   1</c></rc>
    <rc><c>Ni</c><c>   1</c></rc>
    <rc><c>Ni</c><c>   1</c></rc>
    <rc><c>Ni</c><c>   1</c></rc>
    <rc><c>Ni</c><c>   1</c></rc>
    <rc><c>Ni</c><c>   1</c></rc>
    <rc><c>Ni</c><c>   1</c></rc>
    <rc><c>Ni</c><c>   1</c></rc>
    <rc><c>Ni</c><c>   1</c></rc>
    <rc><c>Ni</c><c>   1</c></rc>
    <rc><c>Ni</c><c>   1</c></rc>
    <rc><c>Ni</c><c>   1</c></rc>
    <rc><c>Ni</c><c>   1</c></rc>
    <rc><c>Ni</c><c>   1</c></rc>
    <rc><c>Ni</c><c>   1</c></rc>
    <rc><c>Ni</c><c>   1</c></rc>
    <rc><c>Ni</c><c>   1</c></rc>
    <rc><c>Ni</c><c>   1</c></rc>
    <rc><c>Ni</c><c>   1</c></rc>
    <rc><c>Ni</c><c>   1</c></rc>
    <rc><c>Ni</c><c>   1</c></rc>
    <rc><c>Ni</c><c>   1</c></rc>
    <rc><c>Ni</c><c>   1</c></rc>
    <rc><c>Ni</c><c>   1</c></rc>
    <rc><c>Ni</c><c>   1</c></rc>
    <rc><c>Ni</c><c>   1</c></rc>
    <rc><c>Ni</c><c>   1</c></rc>
    <rc><c>Ni</c><c>   1</c></rc>
    <rc><c>Ni</c><c>   1</c></rc>
   </set>
  </array>
  <array name="atomtypes" >
   <dimension dim="1">type</dimension>
   <field type="int">atomspertype</field>
   <field type="string">element</field>
   <field>mass</field>
   <field>valence</field>
   <field type="string">pseudopotential</field>
   <set>
    <rc><c>  64</c><c>Ni</c><c>     58.69000000</c><c>     16.00000000</c><c> PAW_PBE Ni_pv 06Sep2000                </c></rc>
   </set>
  </array>
 </atominfo>
 <structure name="initialpos" >
  <crystal>
   <varray name="basis" >
    <v>       0.00000000       6.73275000       6.73275000 </v>
    <v>       6.73275000       0.00000000       6.73275000 </v>
    <v>       6.73275000       6.73275000       0.00000000 </v>
   </varray>
   <i name="volume">    610.39007227 </i>
   <varray name="rec_basis" >
    <v>      -0.07426386       0.07426386       0.07426386 </v>
    <v>       0.07426386      -0.07426386       0.07426386 </v>
    <v>       0.07426386       0.07426386      -0.07426386 </v>
   </varray>
  </crystal>
  <varray name="positions" >
   <v>       0.00000000       0.00000000       0.00000000 </v>
   <v>       0.00000000       0.00000000       0.25000000 </v>
   <v>       0.00000000       0.00000000       0.50000000 </v>
   <v>       0.00000000       0.00000000       0.75000000 </v>
   <v>       0.00000000       0.25000000       0.00000000 </v>
   <v>       0.00000000       0.25000000       0.25000000 </v>
   <v>       0.00000000       0.25000000       0.50000000 </v>
   <v>       0.00000000       0.25000000       0.75000000 </v>
   <v>       0.00000000       0.50000000       0.00000000 </v>
   <v>       0.00000000       0.50000000       0.25000000 </v>
   <v>       0.00000000       0.50000000       0.50000000 </v>
   <v>       0.00000000       0.50000000       0.75000000 </v>
   <v>       0.00000000       0.75000000       0.00000000 </v>
   <v>       0.00000000       0.75000000       0.25000000 </v>
   <v>       0.00000000       0.75000000       0.50000000 </v>
   <v>       0.00000000       0.75000000       0.75000000 </v>
   <v>       0.25000000       0.00000000       0.00000000 </v>
   <v>       0.25000000       0.00000000       0.25000000 </v>
   <v>       0.25000000       0.00000000       0.50000000 </v>
   <v>       0.25000000       0.00000000       0.75000000 </v>
   <v>       0.25000000       0.25000000       0.00000000 </v>
   <v>       0.25000000       0.25000000       0.25000000 </v>
   <v>       0.25000000       0.25000000       0.50000000 </v>
   <v>       0.25000000       0.25000000       0.75000000 </v>
   <v>       0.25000000       0.50000000       0.00000000 </v>
   <v>       0.25000000       0.50000000       0.25000000 </v>
   <v>       0.25000000       0.50000000       0.50000000 </v>
   <v>       0.25000000       0.50000000       0.75000000 </v>
   <v>       0.25000000       0.75000000       0.00000000 </v>
   <v>       0.25000000       0.75000000       0.25000000 </v>
   <v>       0.25000000       0.75000000       0.50000000 </v>
   <v>       0.25000000       0.75000000       0.75000000 </v>
   <v>       0.50000000       0.00000000       0.00000000 </v>
   <v>       0.50000000       0.00000000       0.25000000 </v>
   <v>       0.50000000       0.00000000       0.50000000 </v>
   <v>       0.50000000       0.00000000       0.75000000 </v>
   <v>       0.50000000       0.25000000       0.00000000 </v>
   <v>       0.50000000       0.25000000       0.25000000 </v>
   <v>       0.50000000       0.25000000       0.50000000 </v>
   <v>       0.50000000       0.25000000       0.75000000 </v>
   <v>       0.50000000       0.50000000       0.00000000 </v>
   <v>       0.50000000       0.50000000       0.25000000 </v>
   <v>       0.50000000       0.50000000       0.50000000 </v>
   <v>       0.50000000       0.50000000       0.75000000 </v>
   <v>       0.50000000       0.75000000       0.00000000 </v>
   <v>       0.50000000       0.75000000       0.25000000 </v>
   <v>       0.50000000       0.75000000       0.50000000 </v>
   <v>       0.50000000       0.75000000       0.75000000 </v>
   <v>       0.75000000       0.00000000       0.00000000 </v>
   <v>       0.75000000       0.00000000       0.25000000 </v>
   <v>       0.75000000       0.00000000       0.50000000 </v>
   <v>       0.75000000       0.00000000       0.75000000 </v>
   <v>       0.75000000       0.25000000       0.00000000 </v>
   <v>       0.75000000       0.25000000       0.25000000 </v>
   <v>       0.75000000       0.25000000       0.50000000 </v>
   <v>       0.75000000       0.25000000       0.75000000 </v>
   <v>       0.75000000       0.50000000       0.00000000 </v>
   <v>       0.75000000       0.50000000       0.25000000 </v>
   <v>       0.75000000       0.50000000       0.50000000 </v>
   <v>       0.75000000       0.50000000       0.75000000 </v>
   <v>       0.75000000       0.75000000       0.00000000 </v>
   <v>       0.75000000       0.75000000       0.25000000 </v>
   <v>       0.75000000       0.75000000       0.50000000 </v>
   <v>       0.75000000       0.75000000       0.75000000 </v>
  </varray>
 </structure>
 <calculation>
  <scstep>
   <time name="dav">  168.35  168.23</time>
   <time name="total">  168.89  168.77</time>
   <energy>
    <i name="alphaZ">  11304.57052840 </i>
    <i name="ewald">-160660.78111346 </i>
    <i name="hartreedc"> -57619.62050382 </i>
    <i name="XCdc">   5752.46530180 </i>
    <i name="pawpsdc"> 172361.15642774 </i>
    <i name="pawaedc">-181272.45834873 </i>
    <i name="eentropy">     -0.02187057 </i>
    <i name="bandstr">   2457.62309577 </i>
    <i name="atom"> 224016.65216645 </i>
    <i name="e_fr_energy">  16339.58568359 </i>
    <i name="e_wo_entrp">  16339.60755416 </i>
    <i name="e_0_energy">  16339.59297378 </i>
   </energy>
  </scstep>
  <scstep>
   <time name="dav">  154.78  154.66</time>
   <time name="total">  154.78  154.66</time>
   <energy>
    <i name="e_fr_energy">   1294.64174519 </i>
    <i name="e_wo_entrp">   1294.66732567 </i>
    <i name="e_0_energy">   1294.65027202 </i>
   </energy>
  </scstep>
  <scstep>
   <time name="dav">  156.73  156.61</time>
   <time name="total">  156.73  156.61</time>
   <energy>
    <i name="e_fr_energy">   -326.31752885 </i>
    <i name="e_wo_entrp">   -326.28037221 </i>
    <i name="e_0_energy">   -326.30514330 </i>
   </energy>
  </scstep>
  <scstep>
   <time name="dav">  162.93  162.80</time>
   <time name="total">  162.93  162.80</time>
   <energy>
    <i name="e_fr_energy">   -420.37919456 </i>
    <i name="e_wo_entrp">   -420.42781573 </i>
    <i name="e_0_energy">   -420.39540162 </i>
   </energy>
  </scstep>
  <scstep>
   <time name="dav">  163.53  163.40</time>
   <time name="total">  172.74  172.60</time>
   <energy>
    <i name="e_fr_energy">   -421.90995957 </i>
    <i name="e_wo_entrp">   -421.95981332 </i>
    <i name="e_0_energy">   -421.92657748 </i>
   </energy>
  </scstep>
  <scstep>
   <time name="dav">  160.86  160.73</time>
   <time name="total">  170.53  170.39</time>
   <energy>
    <i name="e_fr_energy">   -378.63002430 </i>
    <i name="e_wo_entrp">   -378.33845035 </i>
    <i name="e_0_energy">   -378.53283298 </i>
   </energy>
  </scstep>
  <scstep>
   <time name="dav">  160.49  160.36</time>
   <time name="total">  170.17  170.04</time>
   <energy>
    <i name="e_fr_energy">   -361.19477274 </i>
    <i name="e_wo_entrp">   -360.94257214 </i>
    <i name="e_0_energy">   -361.11070587 </i>
   </energy>
  </scstep>
  <scstep>
   <time name="dav">  161.58  161.46</time>
   <time name="total">  171.36  171.23</time>
   <energy>
    <i name="e_fr_energy">   -361.01482109 </i>
    <i name="e_wo_entrp">   -360.73926485 </i>
    <i name="e_0_energy">   -360.92296901 </i>
   </energy>
  </scstep>
  <scstep>
   <time name="dav">  185.05  184.90</time>
   <time name="total">  194.82  194.66</time>
   <energy>
    <i name="e_fr_energy">   -360.97932089 </i>
    <i name="e_wo_entrp">   -360.72534955 </i>
    <i name="e_0_energy">   -360.89466378 </i>
   </energy>
  </scstep>
  <scstep>
   <time name="dav">  167.18  167.04</time>
   <time name="total">  176.88  176.74</time>
   <energy>
    <i name="e_fr_energy">   -360.98297005 </i>
    <i name="e_wo_entrp">   -360.73263019 </i>
    <i name="e_0_energy">   -360.89952343 </i>
   </energy>
  </scstep>
  <scstep>
   <time name="dav">  169.9314122.15</time>
   <time name="total">  185.1714137.37</time>
   <energy>
    <i name="e_fr_energy">   -360.98328279 </i>
    <i name="e_wo_entrp">   -360.73419246 </i>
    <i name="e_0_energy">   -360.90025268 </i>
   </energy>
  </scstep>
  <scstep>
   <time name="dav">  276.01  275.78</time>
   <time name="total">  291.66  291.42</time>
   <energy>
    <i name="e_fr_energy">   -360.98332858 </i>
    <i name="e_wo_entrp">   -360.73465306 </i>
    <i name="e_0_energy">   -360.90043674 </i>
   </energy>
  </scstep>
  <scstep>
   <time name="dav">  240.81  240.62</time>
   <time name="total">  241.75  241.56</time>
   <energy>
    <i name="alphaZ">  11304.57052840 </i>
    <i name="ewald">-160660.78111346 </i>
    <i name="hartreedc"> -55263.18192226 </i>
    <i name="XCdc">   5658.99686108 </i>
    <i name="pawpsdc"> 174176.23933111 </i>
    <i name="pawaedc">-183268.01253781 </i>
    <i name="eentropy">     -0.24862480 </i>
    <i name="bandstr"> -16325.21801713 </i>
    <i name="atom"> 224016.65216645 </i>
    <i name="e_fr_energy">   -360.98332841 </i>
    <i name="e_wo_entrp">   -360.73470361 </i>
    <i name="e_0_energy">   -360.90045347 </i>
   </energy>
  </scstep>
  <structure>
   <crystal>
    <varray name="basis" >
     <v>       0.00000000       6.73275000       6.73275000 </v>
     <v>       6.73275000       0.00000000       6.73275000 </v>
     <v>       6.73275000       6.73275000       0.00000000 </v>
    </varray>
    <i name="volume">    610.39007227 </i>
    <varray name="rec_basis" >
     <v>      -0.07426386       0.07426386       0.07426386 </v>
     <v>       0.07426386      -0.07426386       0.07426386 </v>
     <v>       0.07426386       0.07426386      -0.07426386 </v>
    </varray>
   </crystal>
   <varray name="positions" >
    <v>       0.00000000       0.00000000       0.00000000 </v>
    <v>       0.00000000       0.00000000       0.25000000 </v>
    <v>       0.00000000       0.00000000       0.50000000 </v>
    <v>       0.00000000       0.00000000       0.75000000 </v>
    <v>       0.00000000       0.25000000       0.00000000 </v>
    <v>       0.00000000       0.25000000       0.25000000 </v>
    <v>       0.00000000       0.25000000       0.50000000 </v>
    <v>       0.00000000       0.25000000       0.75000000 </v>
    <v>       0.00000000       0.50000000       0.00000000 </v>
    <v>       0.00000000       0.50000000       0.25000000 </v>
    <v>       0.00000000       0.50000000       0.50000000 </v>
    <v>       0.00000000       0.50000000       0.75000000 </v>
    <v>       0.00000000       0.75000000       0.00000000 </v>
    <v>       0.00000000       0.75000000       0.25000000 </v>
    <v>       0.00000000       0.75000000       0.50000000 </v>
    <v>       0.00000000       0.75000000       0.75000000 </v>
    <v>       0.25000000       0.00000000       0.00000000 </v>
    <v>       0.25000000       0.00000000       0.25000000 </v>
    <v>       0.25000000       0.00000000       0.50000000 </v>
    <v>       0.25000000       0.00000000       0.75000000 </v>
    <v>       0.25000000       0.25000000       0.00000000 </v>
    <v>       0.25000000       0.25000000       0.25000000 </v>
    <v>       0.25000000       0.25000000       0.50000000 </v>
    <v>       0.25000000       0.25000000       0.75000000 </v>
    <v>       0.25000000       0.50000000       0.00000000 </v>
    <v>       0.25000000       0.50000000       0.25000000 </v>
    <v>       0.25000000       0.50000000       0.50000000 </v>
    <v>       0.25000000       0.50000000       0.75000000 </v>
    <v>       0.25000000       0.75000000       0.00000000 </v>
    <v>       0.25000000       0.75000000       0.25000000 </v>
    <v>       0.25000000       0.75000000       0.50000000 </v>
    <v>       0.25000000       0.75000000       0.75000000 </v>
    <v>       0.50000000       0.00000000       0.00000000 </v>
    <v>       0.50000000       0.00000000       0.25000000 </v>
    <v>       0.50000000       0.00000000       0.50000000 </v>
    <v>       0.50000000       0.00000000       0.75000000 </v>
    <v>       0.50000000       0.25000000       0.00000000 </v>
    <v>       0.50000000       0.25000000       0.25000000 </v>
    <v>       0.50000000       0.25000000       0.50000000 </v>
    <v>       0.50000000       0.25000000       0.75000000 </v>
    <v>       0.50000000       0.50000000       0.00000000 </v>
    <v>       0.50000000       0.50000000       0.25000000 </v>
    <v>       0.50000000       0.50000000       0.50000000 </v>
    <v>       0.50000000       0.50000000       0.75000000 </v>
    <v>       0.50000000       0.75000000       0.00000000 </v>
    <v>       0.50000000       0.75000000       0.25000000 </v>
    <v>       0.50000000       0.75000000       0.50000000 </v>
    <v>       0.50000000       0.75000000       0.75000000 </v>
    <v>       0.75000000       0.00000000       0.00000000 </v>
    <v>       0.75000000       0.00000000       0.25000000 </v>
    <v>       0.75000000       0.00000000       0.50000000 </v>
    <v>       0.75000000       0.00000000       0.75000000 </v>
    <v>       0.75000000       0.25000000       0.00000000 </v>
    <v>       0.75000000       0.25000000       0.25000000 </v>
    <v>       0.75000000       0.25000000       0.50000000 </v>
    <v>       0.75000000       0.25000000       0.75000000 </v>
    <v>       0.75000000       0.50000000       0.00000000 </v>
    <v>       0.75000000       0.50000000       0.25000000 </v>
    <v>       0.75000000       0.50000000       0.50000000 </v>
    <v>       0.75000000       0.50000000       0.75000000 </v>
    <v>       0.75000000       0.75000000       0.00000000 </v>
    <v>       0.75000000       0.75000000       0.25000000 </v>
    <v>       0.75000000       0.75000000       0.50000000 </v>
    <v>       0.75000000       0.75000000       0.75000000 </v>
   </varray>
  </structure>
  <varray name="forces" >
   <v>       0.00000000      -0.00000000      -0.00000000 </v>
   <v>       0.00000000      -0.00000000      -0.00000000 </v>
   <v>       0.00000000       0.00000000       0.00000000 </v>
   <v>       0.00000000       0.00000000      -0.00000000 </v>
   <v>      -0.00000000      -0.00000000      -0.00000000 </v>
   <v>       0.00000000      -0.00000000      -0.00000000 </v>
   <v>       0.00000000      -0.00000000      -0.00000000 </v>
   <v>       0.00000000      -0.00000000       0.00000000 </v>
   <v>       0.00000000       0.00000000       0.00000000 </v>
   <v>       0.00000000      -0.00000000       0.00000000 </v>
   <v>      -0.00000000       0.00000000       0.00000000 </v>
   <v>       0.00000000       0.00000000      -0.00000000 </v>
   <v>      -0.00000000      -0.00000000       0.00000000 </v>
   <v>      -0.00000000      -0.00000000      -0.00000000 </v>
   <v>       0.00000000       0.00000000      -0.00000000 </v>
   <v>      -0.00000000       0.00000000       0.00000000 </v>
   <v>       0.00000000      -0.00000000      -0.00000000 </v>
   <v>      -0.00000000      -0.00000000       0.00000000 </v>
   <v>       0.00000000       0.00000000       0.00000000 </v>
   <v>       0.00000000      -0.00000000      -0.00000000 </v>
   <v>       0.00000000      -0.00000000      -0.00000000 </v>
   <v>      -0.00000000      -0.00000000       0.00000000 </v>
   <v>       0.00000000       0.00000000      -0.00000000 </v>
   <v>      -0.00000000       0.00000000      -0.00000000 </v>
   <v>       0.00000000       0.00000000       0.00000000 </v>
   <v>      -0.00000000      -0.00000000       0.00000000 </v>
   <v>       0.00000000       0.00000000      -0.00000000 </v>
   <v>      -0.00000000       0.00000000       0.00000000 </v>
   <v>      -0.00000000       0.00000000      -0.00000000 </v>
   <v>      -0.00000000      -0.00000000      -0.00000000 </v>
   <v>       0.00000000       0.00000000      -0.00000000 </v>
   <v>      -0.00000000       0.00000000      -0.00000000 </v>
   <v>      -0.00000000      -0.00000000      -0.00000000 </v>
   <v>      -0.00000000      -0.00000000       0.00000000 </v>
   <v>       0.00000000       0.00000000       0.00000000 </v>
   <v>       0.00000000       0.00000000      -0.00000000 </v>
   <v>       0.00000000      -0.00000000      -0.00000000 </v>
   <v>       0.00000000       0.00000000       0.00000000 </v>
   <v>       0.00000000       0.00000000       0.00000000 </v>
   <v>      -0.00000000      -0.00000000      -0.00000000 </v>
   <v>      -0.00000000      -0.00000000       0.00000000 </v>
   <v>      -0.00000000      -0.00000000      -0.00000000 </v>
   <v>       0.00000000       0.00000000      -0.00000000 </v>
   <v>      -0.00000000      -0.00000000       0.00000000 </v>
   <v>      -0.00000000       0.00000000       0.00000000 </v>
   <v>      -0.00000000      -0.00000000      -0.00000000 </v>
   <v>      -0.00000000       0.00000000      -0.00000000 </v>
   <v>      -0.00000000      -0.00000000       0.00000000 </v>
   <v>       0.00000000      -0.00000000      -0.00000000 </v>
   <v>      -0.00000000      -0.00000000       0.00000000 </v>
   <v>       0.00000000       0.00000000       0.00000000 </v>
   <v>       0.00000000       0.00000000      -0.00000000 </v>
   <v>       0.00000000      -0.00000000      -0.00000000 </v>
   <v>       0.00000000      -0.00000000      -0.00000000 </v>
   <v>       0.00000000       0.00000000      -0.00000000 </v>
   <v>      -0.00000000      -0.00000000      -0.00000000 </v>
   <v>       0.00000000      -0.00000000       0.00000000 </v>
   <v>      -0.00000000       0.00000000       0.00000000 </v>
   <v>      -0.00000000       0.00000000      -0.00000000 </v>
   <v>       0.00000000       0.00000000       0.00000000 </v>
   <v>      -0.00000000      -0.00000000       0.00000000 </v>
   <v>      -0.00000000      -0.00000000      -0.00000000 </v>
   <v>      -0.00000000       0.00000000      -0.00000000 </v>
   <v>       0.00000000       0.00000000      -0.00000000 </v>
  </varray>
  <varray name="stress" >
   <v>     358.13859933       0.00000000       0.00000000 </v>
   <v>      -0.00000000     358.13859933      -0.00000000 </v>
   <v>      -0.00000000       0.00000000     358.13859933 </v>
  </varray>
  <energy>
   <i name="e_fr_energy">   -360.98332841 </i>
   <i name="e_wo_entrp">   -360.90045347 </i>
   <i name="e_0_energy">     -0.24862480 </i>
  </energy>
  <kpoints>
   <generation param="Gamma">
    <v type="int" name="divisions">       3        3        3 </v>
    <v name="usershift">      0.00000000       0.00000000       0.00000000 </v>
    <v name="genvec1">      0.33333333       0.00000000       0.00000000 </v>
    <v name="genvec2">      0.00000000       0.33333333       0.00000000 </v>
    <v name="genvec3">      0.00000000       0.00000000       0.33333333 </v>
    <v name="shift">      0.00000000       0.00000000       0.00000000 </v>
   </generation>
   <varray name="kpointlist" >
    <v>       0.00000000       0.00000000       0.00000000 </v>
    <v>       0.33333333       0.00000000       0.00000000 </v>
    <v>       0.33333333       0.33333333       0.00000000 </v>
    <v>      -0.33333333       0.33333333       0.00000000 </v>
    <v>       0.00000000       0.33333333       0.33333333 </v>
    <v>      -0.33333333       0.33333333       0.33333333 </v>
   </varray>
   <varray name="weights" >
    <v>       0.03703704 </v>
    <v>       0.29629630 </v>
    <v>       0.14814815 </v>
    <v>       0.29629630 </v>
    <v>       0.07407407 </v>
    <v>       0.14814815 </v>
   </varray>
  </kpoints>
  <time name="totalsc"> 2761.4316713.70</time>
 </calculation>
 <calculation>
  <scstep>
   <time name="dav">  500.05  499.64</time>
   <time name="total">  520.07  519.64</time>
   <energy>
    <i name="alphaZ">  11304.57052840 </i>
    <i name="ewald">-160660.60182094 </i>
    <i name="hartreedc"> -55263.41523289 </i>
    <i name="XCdc">   5659.00065391 </i>
    <i name="pawpsdc"> 174173.92471884 </i>
    <i name="pawaedc">-183265.66197392 </i>
    <i name="eentropy">     -0.24861983 </i>
    <i name="bandstr"> -16325.10788898 </i>
    <i name="atom"> 224016.65216645 </i>
    <i name="e_fr_energy">   -360.88746896 </i>
    <i name="e_wo_entrp">   -360.63884912 </i>
    <i name="e_0_energy">   -360.80459568 </i>
   </energy>
  </scstep>
  <scstep>
   <time name="dav">  420.44  420.09</time>
   <time name="total">  440.37  440.01</time>
   <energy>
    <i name="e_fr_energy">   -360.98201062 </i>
    <i name="e_wo_entrp">   -360.73349710 </i>
    <i name="e_0_energy">   -360.89917278 </i>
   </energy>
  </scstep>
  <scstep>
   <time name="dav">  477.34  476.95</time>
   <time name="total">  497.31  496.90</time>
   <energy>
    <i name="e_fr_energy">   -360.98461211 </i>
    <i name="e_wo_entrp">   -360.73606303 </i>
    <i name="e_0_energy">   -360.90176242 </i>
   </energy>
  </scstep>
  <scstep>
   <time name="dav">  463.42  463.05</time>
   <time name="total">  483.37  482.98</time>
   <energy>
    <i name="e_fr_energy">   -360.98288041 </i>
    <i name="e_wo_entrp">   -360.73430284 </i>
    <i name="e_0_energy">   -360.90002122 </i>
   </energy>
  </scstep>
  <scstep>
   <time name="dav">  438.94  438.58</time>
   <time name="total">  458.90  458.54</time>
   <energy>
    <i name="e_fr_energy">   -360.98176190 </i>
    <i name="e_wo_entrp">   -360.73313656 </i>
    <i name="e_0_energy">   -360.89888679 </i>
   </energy>
  </scstep>
  <scstep>
   <time name="dav">  489.64  489.25</time>
   <time name="total">  509.64  509.22</time>
   <energy>
    <i name="e_fr_energy">   -360.98174335 </i>
    <i name="e_wo_entrp">   -360.73311365 </i>
    <i name="e_0_energy">   -360.89886679 </i>
   </energy>
  </scstep>
  <scstep>
   <time name="dav">  440.67  440.31</time>
   <time name="total">  460.66  460.30</time>
   <energy>
    <i name="e_fr_energy">   -360.98165141 </i>
    <i name="e_wo_entrp">   -360.73301716 </i>
    <i name="e_0_energy">   -360.89877333 </i>
   </energy>
  </scstep>
  <scstep>
   <time name="dav">  461.35  460.97</time>
   <time name="total">  481.33  480.95</time>
   <energy>
    <i name="e_fr_energy">   -360.98162496 </i>
    <i name="e_wo_entrp">   -360.73298645 </i>
    <i name="e_0_energy">   -360.89874546 </i>
   </energy>
  </scstep>
  <scstep>
   <time name="dav">  485.08  484.69</time>
   <time name="total">  505.08  504.68</time>
   <energy>
    <i name="e_fr_energy">   -360.98156569 </i>
    <i name="e_wo_entrp">   -360.73291749 </i>
    <i name="e_0_energy">   -360.89868295 </i>
   </energy>
  </scstep>
  <scstep>
   <time name="dav">  520.67  520.24</time>
   <time name="total">  540.61  540.17</time>
   <energy>
    <i name="e_fr_energy">   -360.98151947 </i>
    <i name="e_wo_entrp">   -360.73286572 </i>
    <i name="e_0_energy">   -360.89863488 </i>
   </energy>
  </scstep>
  <scstep>
   <time name="dav">  503.08  502.67</time>
   <time name="total">  523.09  522.66</time>
   <energy>
    <i name="e_fr_energy">   -360.98152505 </i>
    <i name="e_wo_entrp">   -360.73287205 </i>
    <i name="e_0_energy">   -360.89864072 </i>
   </energy>
  </scstep>
  <scstep>
   <time name="dav">  421.70  421.35</time>
   <time name="total">  441.64  441.29</time>
   <energy>
    <i name="e_fr_energy">   -360.98152066 </i>
    <i name="e_wo_entrp">   -360.73286843 </i>
    <i name="e_0_energy">   -360.89863658 </i>
   </energy>
  </scstep>
  <scstep>
   <time name="dav">  257.79  257.58</time>
   <time name="total">  258.73  258.52</time>
   <energy>
    <i name="alphaZ">  11304.57052840 </i>
    <i name="ewald">-160660.60182094 </i>
    <i name="hartreedc"> -55263.46568761 </i>
    <i name="XCdc">   5659.00254950 </i>
    <i name="pawpsdc"> 174172.85380937 </i>
    <i name="pawaedc">-183264.57377177 </i>
    <i name="eentropy">     -0.24865184 </i>
    <i name="bandstr"> -16325.17064261 </i>
    <i name="atom"> 224016.65216645 </i>
    <i name="e_fr_energy">   -360.98152105 </i>
    <i name="e_wo_entrp">   -360.73286921 </i>
    <i name="e_0_energy">   -360.89863711 </i>
   </energy>
  </scstep>
  <structure>
   <crystal>
    <varray name="basis" >
     <v>       0.00000000       6.73275000       6.73275000 </v>
     <v>       6.73275000       0.00000000       6.73275000 </v>
     <v>       6.73275000       6.73275000       0.00000000 </v>
    </varray>
    <i name="volume">    610.39007227 </i>
    <varray name="rec_basis" >
     <v>      -0.07426386       0.07426386       0.07426386 </v>
     <v>       0.07426386      -0.07426386       0.07426386 </v>
     <v>       0.07426386       0.07426386      -0.07426386 </v>
    </varray>
   </crystal>
   <varray name="positions" >
    <v>      -0.00111396       0.00111396       0.00111396 </v>
    <v>       0.00000000       0.00000000       0.25000000 </v>
    <v>       0.00000000       0.00000000       0.50000000 </v>
    <v>       0.00000000       0.00000000       0.75000000 </v>
    <v>       0.00000000       0.25000000       0.00000000 </v>
    <v>       0.00000000       0.25000000       0.25000000 </v>
    <v>       0.00000000       0.25000000       0.50000000 </v>
    <v>       0.00000000       0.25000000       0.75000000 </v>
    <v>       0.00000000       0.50000000       0.00000000 </v>
    <v>       0.00000000       0.50000000       0.25000000 </v>
    <v>       0.00000000       0.50000000       0.50000000 </v>
    <v>       0.00000000       0.50000000       0.75000000 </v>
    <v>       0.00000000       0.75000000       0.00000000 </v>
    <v>       0.00000000       0.75000000       0.25000000 </v>
    <v>       0.00000000       0.75000000       0.50000000 </v>
    <v>       0.00000000       0.75000000       0.75000000 </v>
    <v>       0.25000000       0.00000000       0.00000000 </v>
    <v>       0.25000000       0.00000000       0.25000000 </v>
    <v>       0.25000000       0.00000000       0.50000000 </v>
    <v>       0.25000000       0.00000000       0.75000000 </v>
    <v>       0.25000000       0.25000000       0.00000000 </v>
    <v>       0.25000000       0.25000000       0.25000000 </v>
    <v>       0.25000000       0.25000000       0.50000000 </v>
    <v>       0.25000000       0.25000000       0.75000000 </v>
    <v>       0.25000000       0.50000000       0.00000000 </v>
    <v>       0.25000000       0.50000000       0.25000000 </v>
    <v>       0.25000000       0.50000000       0.50000000 </v>
    <v>       0.25000000       0.50000000       0.75000000 </v>
    <v>       0.25000000       0.75000000       0.00000000 </v>
    <v>       0.25000000       0.75000000       0.25000000 </v>
    <v>       0.25000000       0.75000000       0.50000000 </v>
    <v>       0.25000000       0.75000000       0.75000000 </v>
    <v>       0.50000000       0.00000000       0.00000000 </v>
    <v>       0.50000000       0.00000000       0.25000000 </v>
    <v>       0.50000000       0.00000000       0.50000000 </v>
    <v>       0.50000000       0.00000000       0.75000000 </v>
    <v>       0.50000000       0.25000000       0.00000000 </v>
    <v>       0.50000000       0.25000000       0.25000000 </v>
    <v>       0.50000000       0.25000000       0.50000000 </v>
    <v>       0.50000000       0.25000000       0.75000000 </v>
    <v>       0.50000000       0.50000000       0.00000000 </v>
    <v>       0.50000000       0.50000000       0.25000000 </v>
    <v>       0.50000000       0.50000000       0.50000000 </v>
    <v>       0.50000000       0.50000000       0.75000000 </v>
    <v>       0.50000000       0.75000000       0.00000000 </v>
    <v>       0.50000000       0.75000000       0.25000000 </v>
    <v>       0.50000000       0.75000000       0.50000000 </v>
    <v>       0.50000000       0.75000000       0.75000000 </v>
    <v>       0.75000000       0.00000000       0.00000000 </v>
    <v>       0.75000000       0.00000000       0.25000000 </v>
    <v>       0.75000000       0.00000000       0.50000000 </v>
    <v>       0.75000000       0.00000000       0.75000000 </v>
    <v>       0.75000000       0.25000000       0.00000000 </v>
    <v>       0.75000000       0.25000000       0.25000000 </v>
    <v>       0.75000000       0.25000000       0.50000000 </v>
    <v>       0.75000000       0.25000000       0.75000000 </v>
    <v>       0.75000000       0.50000000       0.00000000 </v>
    <v>       0.75000000       0.50000000       0.25000000 </v>
    <v>       0.75000000       0.50000000       0.50000000 </v>
    <v>       0.75000000       0.50000000       0.75000000 </v>
    <v>       0.75000000       0.75000000       0.00000000 </v>
    <v>       0.75000000       0.75000000       0.25000000 </v>
    <v>       0.75000000       0.75000000       0.50000000 </v>
    <v>       0.75000000       0.75000000       0.75000000 </v>
   </varray>
  </structure>
  <varray name="forces" >
   <v>      -0.23888887       0.00000000       0.00000000 </v>
   <v>       0.02885086       0.03399190       0.00000000 </v>
   <v>      -0.00002162      -0.00049487       0.00000000 </v>
   <v>       0.02773133       0.03229360       0.00000000 </v>
   <v>       0.02885086       0.00000000       0.03399190 </v>
   <v>       0.00157556       0.00086747       0.00086747 </v>
   <v>       0.00031351       0.00098227      -0.00033426 </v>
   <v>      -0.00213768       0.00018805      -0.00018805 </v>
   <v>      -0.00002162       0.00000000      -0.00049487 </v>
   <v>       0.00031351      -0.00033426       0.00098227 </v>
   <v>       0.00007356      -0.00000000       0.00000000 </v>
   <v>       0.00028996      -0.00035478       0.00076317 </v>
   <v>       0.02773133       0.00000000       0.03229360 </v>
   <v>      -0.00213768      -0.00018805       0.00018805 </v>
   <v>       0.00028996       0.00076317      -0.00035478 </v>
   <v>       0.00177412       0.00084381       0.00084381 </v>
   <v>      -0.00213768      -0.00018805      -0.00018805 </v>
   <v>       0.00028996       0.00076317       0.00035478 </v>
   <v>       0.00177412       0.00084381      -0.00084381 </v>
   <v>       0.02773133       0.00000000      -0.03229360 </v>
   <v>       0.00028996       0.00035478       0.00076317 </v>
   <v>       0.00018942      -0.00000000       0.00000000 </v>
   <v>       0.00031351       0.00033426      -0.00098227 </v>
   <v>      -0.00048687       0.00000000      -0.00020048 </v>
   <v>       0.00177412      -0.00084381       0.00084381 </v>
   <v>       0.00031351      -0.00098227       0.00033426 </v>
   <v>      -0.00037678      -0.00008436      -0.00008436 </v>
   <v>       0.00024225       0.00000000      -0.00020168 </v>
   <v>       0.02773133      -0.03229360       0.00000000 </v>
   <v>      -0.00048687      -0.00020048       0.00000000 </v>
   <v>       0.00024225      -0.00020168       0.00000000 </v>
   <v>       0.00281327       0.00000000       0.00000000 </v>
   <v>       0.00007356       0.00000000       0.00000000 </v>
   <v>       0.00028996      -0.00035478      -0.00076317 </v>
   <v>      -0.00002162       0.00000000       0.00049487 </v>
   <v>       0.00031351      -0.00033426      -0.00098227 </v>
   <v>       0.00028996      -0.00076317      -0.00035478 </v>
   <v>       0.00157556      -0.00086747      -0.00086747 </v>
   <v>       0.00008779       0.00000000       0.00002596 </v>
   <v>      -0.00037678       0.00008436      -0.00008436 </v>
   <v>      -0.00002162       0.00049487       0.00000000 </v>
   <v>       0.00008779       0.00002596       0.00000000 </v>
   <v>      -0.00066041       0.00000000       0.00000000 </v>
   <v>       0.00024225       0.00020168       0.00000000 </v>
   <v>       0.00031351      -0.00098227      -0.00033426 </v>
   <v>      -0.00037678      -0.00008436       0.00008436 </v>
   <v>       0.00024225       0.00000000       0.00020168 </v>
   <v>       0.00177412      -0.00084381      -0.00084381 </v>
   <v>      -0.00213768       0.00018805       0.00018805 </v>
   <v>       0.02885086       0.00000000      -0.03399190 </v>
   <v>       0.00157556       0.00086747      -0.00086747 </v>
   <v>       0.00031351       0.00098227       0.00033426 </v>
   <v>       0.02885086      -0.03399190       0.00000000 </v>
   <v>       0.00242658       0.00000000       0.00000000 </v>
   <v>       0.00008779      -0.00002596       0.00000000 </v>
   <v>      -0.00048687       0.00020048       0.00000000 </v>
   <v>       0.00157556      -0.00086747       0.00086747 </v>
   <v>       0.00008779       0.00000000      -0.00002596 </v>
   <v>      -0.00037678       0.00008436       0.00008436 </v>
   <v>       0.00028996      -0.00076317       0.00035478 </v>
   <v>       0.00031351       0.00033426       0.00098227 </v>
   <v>      -0.00048687       0.00000000       0.00020048 </v>
   <v>       0.00028996       0.00035478      -0.00076317 </v>
   <v>       0.00018942       0.00000000       0.00000000 </v>
  </varray>
  <varray name="stress" >
   <v>     358.32257361      -0.00000000       0.00000000 </v>
   <v>       0.00000000     358.31320535       0.00000000 </v>
   <v>       0.00000000       0.00000000     358.31320535 </v>
  </varray>
  <energy>
   <i name="e_fr_energy">   -360.98152105 </i>
   <i name="e_wo_entrp">   -360.89863711 </i>
   <i name="e_0_energy">     -0.24865184 </i>
  </energy>
  <kpoints>
   <generation param="Gamma">
    <v type="int" name="divisions">       3        3        3 </v>
    <v name="usershift">      0.00000000       0.00000000       0.00000000 </v>
    <v name="genvec1">      0.33333333       0.00000000       0.00000000 </v>
    <v name="genvec2">      0.00000000       0.33333333       0.00000000 </v>
    <v name="genvec3">      0.00000000       0.00000000       0.33333333 </v>
    <v name="shift">      0.00000000       0.00000000       0.00000000 </v>
   </generation>
   <varray name="kpointlist" >
    <v>       0.00000000       0.00000000       0.00000000 </v>
    <v>       0.33333333       0.00000000       0.00000000 </v>
    <v>       0.33333333       0.33333333       0.00000000 </v>
    <v>      -0.33333333       0.33333333       0.00000000 </v>
    <v>       0.00000000       0.33333333       0.33333333 </v>
    <v>      -0.33333333       0.33333333       0.33333333 </v>
   </varray>
   <varray name="weights" >
    <v>       0.03703704 </v>
    <v>       0.29629630 </v>
    <v>       0.14814815 </v>
    <v>       0.29629630 </v>
    <v>       0.07407407 </v>
    <v>       0.14814815 </v>
   </varray>
  </kpoints>
  <time name="totalsc"> 6603.86 6598.53</time>
 </calculation>
 <calculation>
  <scstep>
   <time name="dav">  501.71  501.30</time>
   <time name="total">  521.66  521.24</time>
   <energy>
    <i name="alphaZ">  11304.57052840 </i>
    <i name="ewald">-160660.60182094 </i>
    <i name="hartreedc"> -55263.51218247 </i>
    <i name="XCdc">   5659.00501247 </i>
    <i name="pawpsdc"> 174172.81788354 </i>
    <i name="pawaedc">-183264.53864327 </i>
    <i name="eentropy">     -0.24864644 </i>
    <i name="bandstr"> -16324.78240195 </i>
    <i name="atom"> 224016.65216645 </i>
    <i name="e_fr_energy">   -360.63810422 </i>
    <i name="e_wo_entrp">   -360.38945778 </i>
    <i name="e_0_energy">   -360.55522207 </i>
   </energy>
  </scstep>
  <scstep>
   <time name="dav">  440.21  439.86</time>
   <time name="total">  461.95  461.58</time>
   <energy>
    <i name="e_fr_energy">   -360.99066078 </i>
    <i name="e_wo_entrp">   -360.74287258 </i>
    <i name="e_0_energy">   -360.90806472 </i>
   </energy>
  </scstep>
  <scstep>
   <time name="dav">  498.80  498.39</time>
   <time name="total">  520.88  520.46</time>
   <energy>
    <i name="e_fr_energy">   -360.98704728 </i>
    <i name="e_wo_entrp">   -360.73851619 </i>
    <i name="e_0_energy">   -360.90420358 </i>
   </energy>
  </scstep>
  <scstep>
   <time name="dav">  517.45  517.07</time>
   <time name="total">  540.50  540.10</time>
   <energy>
    <i name="e_fr_energy">   -360.98985528 </i>
    <i name="e_wo_entrp">   -360.74155034 </i>
    <i name="e_0_energy">   -360.90708696 </i>
   </energy>
  </scstep>
  <scstep>
   <time name="dav">  453.78  453.41</time>
   <time name="total">  475.75  475.37</time>
   <energy>
    <i name="e_fr_energy">   -360.98243984 </i>
    <i name="e_wo_entrp">   -360.73381556 </i>
    <i name="e_0_energy">   -360.89956508 </i>
   </energy>
  </scstep>
  <scstep>
   <time name="dav">  505.23  504.83</time>
   <time name="total">  527.22  526.81</time>
   <energy>
    <i name="e_fr_energy">   -360.98227903 </i>
    <i name="e_wo_entrp">   -360.73364229 </i>
    <i name="e_0_energy">   -360.89940012 </i>
   </energy>
  </scstep>
  <scstep>
   <time name="dav">  501.28  500.92</time>
   <time name="total">  525.17  524.79</time>
   <energy>
    <i name="e_fr_energy">   -360.98203103 </i>
    <i name="e_wo_entrp">   -360.73339191 </i>
    <i name="e_0_energy">   -360.89915132 </i>
   </energy>
  </scstep>
  <scstep>
   <time name="dav">  516.89  516.48</time>
   <time name="total">  540.97  540.53</time>
   <energy>
    <i name="e_fr_energy">   -360.98183838 </i>
    <i name="e_wo_entrp">   -360.73319283 </i>
    <i name="e_0_energy">   -360.89895653 </i>
   </energy>
  </scstep>
  <scstep>
   <time name="dav">  521.67  521.25</time>
   <time name="total">  545.76  545.33</time>
   <energy>
    <i name="e_fr_energy">   -360.98186249 </i>
    <i name="e_wo_entrp">   -360.73321226 </i>
    <i name="e_0_energy">   -360.89897908 </i>
   </energy>
  </scstep>
  <scstep>
   <time name="dav">  582.92  582.45</time>
   <time name="total">  607.03  606.54</time>
   <energy>
    <i name="e_fr_energy">   -360.98159803 </i>
    <i name="e_wo_entrp">   -360.73293180 </i>
    <i name="e_0_energy">   -360.89870929 </i>
   </energy>
  </scstep>
  <scstep>
   <time name="dav">  567.66  567.20</time>
   <time name="total">  591.60  591.13</time>
   <energy>
    <i name="e_fr_energy">   -360.98151726 </i>
    <i name="e_wo_entrp">   -360.73284528 </i>
    <i name="e_0_energy">   -360.89862660 </i>
   </energy>
  </scstep>
  <scstep>
   <time name="dav">  523.74  523.32</time>
   <time name="total">  547.82  547.38</time>
   <energy>
    <i name="e_fr_energy">   -360.98152199 </i>
    <i name="e_wo_entrp">   -360.73285926 </i>
    <i name="e_0_energy">   -360.89863442 </i>
   </energy>
  </scstep>
  <scstep>
   <time name="dav">  480.83  480.44</time>
   <time name="total">  481.85  481.47</time>
   <energy>
    <i name="alphaZ">  11304.57052840 </i>
    <i name="ewald">-160660.60182094 </i>
    <i name="hartreedc"> -55263.46935437 </i>
    <i name="XCdc">   5659.00278255 </i>
    <i name="pawpsdc"> 174172.86467276 </i>
    <i name="pawaedc">-183264.58490874 </i>
    <i name="eentropy">     -0.24866142 </i>
    <i name="bandstr"> -16325.16692602 </i>
    <i name="atom"> 224016.65216645 </i>
    <i name="e_fr_energy">   -360.98152132 </i>
    <i name="e_wo_entrp">   -360.73285990 </i>
    <i name="e_0_energy">   -360.89863418 </i>
   </energy>
  </scstep>
  <structure>
   <crystal>
    <varray name="basis" >
     <v>       0.00000000       6.73275000       6.73275000 </v>
     <v>       6.73275000       0.00000000       6.73275000 </v>
     <v>       6.73275000       6.73275000       0.00000000 </v>
    </varray>
    <i name="volume">    610.39007227 </i>
    <varray name="rec_basis" >
     <v>      -0.07426386       0.07426386       0.07426386 </v>
     <v>       0.07426386      -0.07426386       0.07426386 </v>
     <v>       0.07426386       0.07426386      -0.07426386 </v>
    </varray>
   </crystal>
   <varray name="positions" >
    <v>       0.00111396      -0.00111396      -0.00111396 </v>
    <v>       0.00000000       0.00000000       0.25000000 </v>
    <v>       0.00000000       0.00000000       0.50000000 </v>
    <v>       0.00000000       0.00000000       0.75000000 </v>
    <v>       0.00000000       0.25000000       0.00000000 </v>
    <v>       0.00000000       0.25000000       0.25000000 </v>
    <v>       0.00000000       0.25000000       0.50000000 </v>
    <v>       0.00000000       0.25000000       0.75000000 </v>
    <v>       0.00000000       0.50000000       0.00000000 </v>
    <v>       0.00000000       0.50000000       0.25000000 </v>
    <v>       0.00000000       0.50000000       0.50000000 </v>
    <v>       0.00000000       0.50000000       0.75000000 </v>
    <v>       0.00000000       0.75000000       0.00000000 </v>
    <v>       0.00000000       0.75000000       0.25000000 </v>
    <v>       0.00000000       0.75000000       0.50000000 </v>
    <v>       0.00000000       0.75000000       0.75000000 </v>
    <v>       0.25000000       0.00000000       0.00000000 </v>
    <v>       0.25000000       0.00000000       0.25000000 </v>
    <v>       0.25000000       0.00000000       0.50000000 </v>
    <v>       0.25000000       0.00000000       0.75000000 </v>
    <v>       0.25000000       0.25000000       0.00000000 </v>
    <v>       0.25000000       0.25000000       0.25000000 </v>
    <v>       0.25000000       0.25000000       0.50000000 </v>
    <v>       0.25000000       0.25000000       0.75000000 </v>
    <v>       0.25000000       0.50000000       0.00000000 </v>
    <v>       0.25000000       0.50000000       0.25000000 </v>
    <v>       0.25000000       0.50000000       0.50000000 </v>
    <v>       0.25000000       0.50000000       0.75000000 </v>
    <v>       0.25000000       0.75000000       0.00000000 </v>
    <v>       0.25000000       0.75000000       0.25000000 </v>
    <v>       0.25000000       0.75000000       0.50000000 </v>
    <v>       0.25000000       0.75000000       0.75000000 </v>
    <v>       0.50000000       0.00000000       0.00000000 </v>
    <v>       0.50000000       0.00000000       0.25000000 </v>
    <v>       0.50000000       0.00000000       0.50000000 </v>
    <v>       0.50000000       0.00000000       0.75000000 </v>
    <v>       0.50000000       0.25000000       0.00000000 </v>
    <v>       0.50000000       0.25000000       0.25000000 </v>
    <v>       0.50000000       0.25000000       0.50000000 </v>
    <v>       0.50000000       0.25000000       0.75000000 </v>
    <v>       0.50000000       0.50000000       0.00000000 </v>
    <v>       0.50000000       0.50000000       0.25000000 </v>
    <v>       0.50000000       0.50000000       0.50000000 </v>
    <v>       0.50000000       0.50000000       0.75000000 </v>
    <v>       0.50000000       0.75000000       0.00000000 </v>
    <v>       0.50000000       0.75000000       0.25000000 </v>
    <v>       0.50000000       0.75000000       0.50000000 </v>
    <v>       0.50000000       0.75000000       0.75000000 </v>
    <v>       0.75000000       0.00000000       0.00000000 </v>
    <v>       0.75000000       0.00000000       0.25000000 </v>
    <v>       0.75000000       0.00000000       0.50000000 </v>
    <v>       0.75000000       0.00000000       0.75000000 </v>
    <v>       0.75000000       0.25000000       0.00000000 </v>
    <v>       0.75000000       0.25000000       0.25000000 </v>
    <v>       0.75000000       0.25000000       0.50000000 </v>
    <v>       0.75000000       0.25000000       0.75000000 </v>
    <v>       0.75000000       0.50000000       0.00000000 </v>
    <v>       0.75000000       0.50000000       0.25000000 </v>
    <v>       0.75000000       0.50000000       0.50000000 </v>
    <v>       0.75000000       0.50000000       0.75000000 </v>
    <v>       0.75000000       0.75000000       0.00000000 </v>
    <v>       0.75000000       0.75000000       0.25000000 </v>
    <v>       0.75000000       0.75000000       0.50000000 </v>
    <v>       0.75000000       0.75000000       0.75000000 </v>
   </varray>
  </structure>
  <varray name="forces" >
   <v>       0.24087599       0.00000000       0.00000000 </v>
   <v>      -0.02759235      -0.03230633       0.00000000 </v>
   <v>       0.00005221       0.00036497       0.00000000 </v>
   <v>      -0.02886956      -0.03411268       0.00000000 </v>
   <v>      -0.02759235       0.00000000      -0.03230633 </v>
   <v>      -0.00166760      -0.00097597      -0.00097597 </v>
   <v>      -0.00028882      -0.00093985       0.00029378 </v>
   <v>       0.00213721       0.00011271      -0.00011271 </v>
   <v>       0.00005221       0.00000000       0.00036497 </v>
   <v>      -0.00028882       0.00029378      -0.00093985 </v>
   <v>      -0.00014311       0.00000000       0.00000000 </v>
   <v>      -0.00038822       0.00038609      -0.00095266 </v>
   <v>      -0.02886956       0.00000000      -0.03411268 </v>
   <v>       0.00213721      -0.00011271       0.00011271 </v>
   <v>      -0.00038822      -0.00095266       0.00038609 </v>
   <v>      -0.00167988      -0.00089665      -0.00089665 </v>
   <v>       0.00213721      -0.00011271      -0.00011271 </v>
   <v>      -0.00038822      -0.00095266      -0.00038609 </v>
   <v>      -0.00167988      -0.00089665       0.00089665 </v>
   <v>      -0.02886956       0.00000000       0.03411268 </v>
   <v>      -0.00038822      -0.00038609      -0.00095266 </v>
   <v>      -0.00017640       0.00000000       0.00000000 </v>
   <v>      -0.00028882      -0.00029378       0.00093985 </v>
   <v>       0.00041841       0.00000000      -0.00001504 </v>
   <v>      -0.00167988       0.00089665      -0.00089665 </v>
   <v>      -0.00028882       0.00093985      -0.00029378 </v>
   <v>       0.00024866       0.00001140       0.00001140 </v>
   <v>      -0.00027140       0.00000000       0.00006116 </v>
   <v>      -0.02886956       0.03411268       0.00000000 </v>
   <v>       0.00041841      -0.00001504       0.00000000 </v>
   <v>      -0.00027140       0.00006116       0.00000000 </v>
   <v>      -0.00262797       0.00000000       0.00000000 </v>
   <v>      -0.00014311      -0.00000000       0.00000000 </v>
   <v>      -0.00038822       0.00038609       0.00095266 </v>
   <v>       0.00005221       0.00000000      -0.00036497 </v>
   <v>      -0.00028882       0.00029378       0.00093985 </v>
   <v>      -0.00038822       0.00095266       0.00038609 </v>
   <v>      -0.00166760       0.00097597       0.00097597 </v>
   <v>      -0.00028044       0.00000000      -0.00005750 </v>
   <v>       0.00024866      -0.00001140       0.00001140 </v>
   <v>       0.00005221      -0.00036497       0.00000000 </v>
   <v>      -0.00028044      -0.00005750       0.00000000 </v>
   <v>       0.00048339       0.00000000       0.00000000 </v>
   <v>      -0.00027140      -0.00006116       0.00000000 </v>
   <v>      -0.00028882       0.00093985       0.00029378 </v>
   <v>       0.00024866       0.00001140      -0.00001140 </v>
   <v>      -0.00027140       0.00000000      -0.00006116 </v>
   <v>      -0.00167988       0.00089665       0.00089665 </v>
   <v>       0.00213721       0.00011271       0.00011271 </v>
   <v>      -0.02759235       0.00000000       0.03230633 </v>
   <v>      -0.00166760      -0.00097597       0.00097597 </v>
   <v>      -0.00028882      -0.00093985      -0.00029378 </v>
   <v>      -0.02759235       0.03230633       0.00000000 </v>
   <v>      -0.00265703       0.00000000       0.00000000 </v>
   <v>      -0.00028044       0.00005750       0.00000000 </v>
   <v>       0.00041841       0.00001504       0.00000000 </v>
   <v>      -0.00166760       0.00097597      -0.00097597 </v>
   <v>      -0.00028044       0.00000000       0.00005750 </v>
   <v>       0.00024866      -0.00001140      -0.00001140 </v>
   <v>      -0.00038822       0.00095266      -0.00038609 </v>
   <v>      -0.00028882      -0.00029378      -0.00093985 </v>
   <v>       0.00041841       0.00000000       0.00001504 </v>
   <v>      -0.00038822      -0.00038609       0.00095266 </v>
   <v>      -0.00017640       0.00000000       0.00000000 </v>
  </varray>
  <varray name="stress" >
   <v>     358.29873389       0.00000000      -0.00000000 </v>
   <v>      -0.00000000     358.28060133       0.00000000 </v>
   <v>       0.00000000       0.00000000     358.28060133 </v>
  </varray>
  <energy>
   <i name="e_fr_energy">   -360.98152132 </i>
   <i name="e_wo_entrp">   -360.89863418 </i>
   <i name="e_0_energy">     -0.24866142 </i>
  </energy>
  <dynmat>
   <varray name="hessian" >
    <v>      -0.27248529       0.00000000       0.00000000       0.03210203       0.03768516      -0.00000000      -0.00004193      -0.00048835       0.00000000       0.03210203       0.03768516      -0.00000000       0.03210203      -0.00000000       0.03768516       0.00190185       0.00102542       0.00102542       0.00036364       0.00102542      -0.00038874      -0.00242795       0.00000000      -0.00000000      -0.00004193       0.00000000      -0.00048835       0.00036364      -0.00038874       0.00102542       0.00012306       0.00000000       0.00000000       0.00036364      -0.00038874       0.00102542       0.03210203      -0.00000000       0.03768516      -0.00242795      -0.00000000       0.00000000       0.00036364       0.00102542      -0.00038874       0.00190185       0.00102542       0.00102542      -0.00242795      -0.00000000      -0.00000000       0.00036364       0.00102542       0.00038874       0.00190185       0.00102542      -0.00102542       0.03210203      -0.00000000      -0.03768516       0.00036364       0.00038874       0.00102542       0.00020777       0.00000000       0.00000000       0.00036364       0.00038874      -0.00102542      -0.00051416       0.00000000       0.00000000       0.00190185      -0.00102542       0.00102542       0.00036364      -0.00102542       0.00038874      -0.00035523      -0.00000000      -0.00000000       0.00025043      -0.00000000      -0.00009834       0.03210203      -0.03768516      -0.00000000      -0.00051416      -0.00000000       0.00000000       0.00025043      -0.00009834      -0.00000000       0.00298883       0.00000000      -0.00000000       0.00012306       0.00000000       0.00000000       0.00036364      -0.00038874      -0.00102542      -0.00004193       0.00000000       0.00048835       0.00036364      -0.00038874      -0.00102542       0.00036364      -0.00102542      -0.00038874       0.00190185      -0.00102542      -0.00102542       0.00025043       0.00000000       0.00009834      -0.00035523       0.00000000      -0.00000000      -0.00004193       0.00048835       0.00000000       0.00025043       0.00009834       0.00000000      -0.00064963       0.00000000       0.00000000       0.00025043       0.00009834      -0.00000000       0.00036364      -0.00102542      -0.00038874      -0.00035523      -0.00000000       0.00000000       0.00025043      -0.00000000       0.00009834       0.00190185      -0.00102542      -0.00102542      -0.00242795      -0.00000000      -0.00000000       0.03210203       0.00000000      -0.03768516       0.00190185       0.00102542      -0.00102542       0.00036364       0.00102542       0.00038874       0.03210203      -0.03768516       0.00000000       0.00298883       0.00000000      -0.00000000       0.00025043      -0.00009834       0.00000000      -0.00051416      -0.00000000       0.00000000       0.00190185      -0.00102542       0.00102542       0.00025043       0.00000000      -0.00009834      -0.00035523       0.00000000       0.00000000       0.00036364      -0.00102542       0.00038874       0.00036364       0.00038874       0.00102542      -0.00051416       0.00000000       0.00000000       0.00036364       0.00038874      -0.00102542       0.00020777       0.00000000       0.00000000 </v>
    <v>       0.00000000      -0.27248529       0.00000000       0.03768516       0.03210203      -0.00000000      -0.00048835      -0.00004193       0.00000000       0.03768516       0.03210203      -0.00000000      -0.00000000      -0.00242795      -0.00000000       0.00102542       0.00036364       0.00038874       0.00102542       0.00190185      -0.00102542      -0.00000000       0.03210203      -0.03768516       0.00000000       0.00012306       0.00000000      -0.00038874       0.00036364      -0.00102542       0.00000000      -0.00004193       0.00048835      -0.00038874       0.00036364      -0.00102542      -0.00000000      -0.00242795      -0.00000000       0.00000000       0.03210203      -0.03768516       0.00102542       0.00190185      -0.00102542       0.00102542       0.00036364       0.00038874      -0.00000000       0.03210203       0.03768516       0.00102542       0.00190185       0.00102542       0.00102542       0.00036364      -0.00038874       0.00000000      -0.00242795      -0.00000000       0.00038874       0.00036364       0.00102542       0.00000000       0.00020777       0.00000000       0.00038874       0.00036364      -0.00102542       0.00000000      -0.00051416      -0.00000000      -0.00102542       0.00036364      -0.00038874      -0.00102542       0.00190185      -0.00102542       0.00000000       0.00025043       0.00009834       0.00000000      -0.00035523      -0.00000000      -0.03768516       0.03210203       0.00000000      -0.00000000       0.00298883       0.00000000      -0.00009834       0.00025043       0.00000000       0.00000000      -0.00051416       0.00000000       0.00000000      -0.00004193      -0.00048835      -0.00038874       0.00036364       0.00102542       0.00000000       0.00012306       0.00000000      -0.00038874       0.00036364       0.00102542      -0.00102542       0.00190185       0.00102542      -0.00102542       0.00036364       0.00038874      -0.00000000      -0.00035523      -0.00000000      -0.00000000       0.00025043      -0.00009834       0.00048835      -0.00004193       0.00000000       0.00009834       0.00025043       0.00000000       0.00000000      -0.00064963       0.00000000       0.00009834       0.00025043      -0.00000000      -0.00102542       0.00190185       0.00102542       0.00000000       0.00025043      -0.00009834       0.00000000      -0.00035523       0.00000000      -0.00102542       0.00036364       0.00038874      -0.00000000       0.03210203       0.03768516      -0.00000000      -0.00242795       0.00000000       0.00102542       0.00036364      -0.00038874       0.00102542       0.00190185       0.00102542      -0.03768516       0.03210203      -0.00000000       0.00000000      -0.00051416       0.00000000      -0.00009834       0.00025043      -0.00000000      -0.00000000       0.00298883       0.00000000      -0.00102542       0.00036364      -0.00038874      -0.00000000      -0.00035523       0.00000000      -0.00000000       0.00025043       0.00009834      -0.00102542       0.00190185      -0.00102542       0.00038874       0.00036364       0.00102542       0.00000000      -0.00051416      -0.00000000       0.00038874       0.00036364      -0.00102542       0.00000000       0.00020777       0.00000000 </v>
    <v>       0.00000000       0.00000000      -0.27248529      -0.00000000      -0.00000000      -0.00242795       0.00000000       0.00000000       0.00012306      -0.00000000      -0.00000000      -0.00242795       0.03768516      -0.00000000       0.03210203       0.00102542       0.00038874       0.00036364      -0.00038874      -0.00102542       0.00036364       0.00000000      -0.03768516       0.03210203      -0.00048835       0.00000000      -0.00004193       0.00102542      -0.00102542       0.00190185       0.00000000       0.00048835      -0.00004193       0.00102542      -0.00102542       0.00190185       0.03768516      -0.00000000       0.03210203      -0.00000000      -0.03768516       0.03210203      -0.00038874      -0.00102542       0.00036364       0.00102542       0.00038874       0.00036364      -0.00000000       0.03768516       0.03210203       0.00038874       0.00102542       0.00036364      -0.00102542      -0.00038874       0.00036364      -0.03768516       0.00000000       0.03210203       0.00102542       0.00102542       0.00190185       0.00000000       0.00000000       0.00020777      -0.00102542      -0.00102542       0.00190185       0.00000000      -0.00000000       0.00298883       0.00102542      -0.00038874       0.00036364       0.00038874      -0.00102542       0.00036364       0.00000000       0.00009834       0.00025043      -0.00009834       0.00000000       0.00025043       0.00000000      -0.00000000      -0.00242795       0.00000000       0.00000000      -0.00051416       0.00000000      -0.00000000      -0.00035523      -0.00000000       0.00000000      -0.00051416       0.00000000      -0.00048835      -0.00004193      -0.00102542       0.00102542       0.00190185       0.00048835       0.00000000      -0.00004193      -0.00102542       0.00102542       0.00190185      -0.00038874       0.00102542       0.00036364      -0.00102542       0.00038874       0.00036364       0.00009834       0.00000000       0.00025043       0.00000000      -0.00009834       0.00025043       0.00000000       0.00000000       0.00012306      -0.00000000      -0.00000000      -0.00035523       0.00000000       0.00000000      -0.00064963       0.00000000       0.00000000      -0.00035523      -0.00038874       0.00102542       0.00036364      -0.00000000      -0.00009834       0.00025043       0.00009834      -0.00000000       0.00025043      -0.00102542       0.00038874       0.00036364      -0.00000000       0.03768516       0.03210203      -0.03768516      -0.00000000       0.03210203      -0.00102542      -0.00038874       0.00036364       0.00038874       0.00102542       0.00036364      -0.00000000       0.00000000      -0.00242795      -0.00000000       0.00000000      -0.00051416      -0.00000000       0.00000000      -0.00035523       0.00000000       0.00000000      -0.00051416       0.00102542      -0.00038874       0.00036364      -0.00009834      -0.00000000       0.00025043      -0.00000000       0.00009834       0.00025043       0.00038874      -0.00102542       0.00036364       0.00102542       0.00102542       0.00190185       0.00000000      -0.00000000       0.00298883      -0.00102542      -0.00102542       0.00190185       0.00000000       0.00000000       0.00020777 </v>
    <v>       0.03210203       0.03768516      -0.00000000      -0.27248529       0.00000000       0.00000000       0.03210203       0.03768516      -0.00000000      -0.00004193      -0.00048835       0.00000000      -0.00242795       0.00000000      -0.00000000       0.03210203      -0.00000000       0.03768516       0.00190185       0.00102542       0.00102542       0.00036364       0.00102542      -0.00038874       0.00036364      -0.00038874       0.00102542      -0.00004193       0.00000000      -0.00048835       0.00036364      -0.00038874       0.00102542       0.00012306       0.00000000       0.00000000       0.00190185       0.00102542       0.00102542       0.03210203      -0.00000000       0.03768516      -0.00242795      -0.00000000       0.00000000       0.00036364       0.00102542      -0.00038874       0.03210203      -0.00000000      -0.03768516      -0.00242795      -0.00000000      -0.00000000       0.00036364       0.00102542       0.00038874       0.00190185       0.00102542      -0.00102542      -0.00051416       0.00000000       0.00000000       0.00036364       0.00038874       0.00102542       0.00020777       0.00000000       0.00000000       0.00036364       0.00038874      -0.00102542       0.00025043      -0.00000000      -0.00009834       0.00190185      -0.00102542       0.00102542       0.00036364      -0.00102542       0.00038874      -0.00035523      -0.00000000      -0.00000000       0.00298883       0.00000000      -0.00000000       0.03210203      -0.03768516      -0.00000000      -0.00051416      -0.00000000       0.00000000       0.00025043      -0.00009834      -0.00000000       0.00036364      -0.00038874      -0.00102542       0.00012306       0.00000000       0.00000000       0.00036364      -0.00038874      -0.00102542      -0.00004193       0.00000000       0.00048835      -0.00035523       0.00000000      -0.00000000       0.00036364      -0.00102542      -0.00038874       0.00190185      -0.00102542      -0.00102542       0.00025043       0.00000000       0.00009834       0.00025043       0.00009834      -0.00000000      -0.00004193       0.00048835       0.00000000       0.00025043       0.00009834       0.00000000      -0.00064963       0.00000000       0.00000000       0.00190185      -0.00102542      -0.00102542       0.00036364      -0.00102542      -0.00038874      -0.00035523      -0.00000000       0.00000000       0.00025043      -0.00000000       0.00009834       0.00036364       0.00102542       0.00038874      -0.00242795      -0.00000000      -0.00000000       0.03210203       0.00000000      -0.03768516       0.00190185       0.00102542      -0.00102542      -0.00051416      -0.00000000       0.00000000       0.03210203      -0.03768516       0.00000000       0.00298883       0.00000000      -0.00000000       0.00025043      -0.00009834       0.00000000       0.00036364      -0.00102542       0.00038874       0.00190185      -0.00102542       0.00102542       0.00025043       0.00000000      -0.00009834      -0.00035523       0.00000000       0.00000000       0.00020777       0.00000000       0.00000000       0.00036364       0.00038874       0.00102542      -0.00051416       0.00000000       0.00000000       0.00036364       0.00038874      -0.00102542 </v>
[...]
       <r>    26.4688     0.0000   648.0000 </r>
       <r>    26.7602     0.0000   648.0000 </r>
       <r>    27.0516     0.0000   648.0000 </r>
       <r>    27.3431     0.0000   648.0000 </r>
       <r>    27.6345     0.0000   648.0000 </r>
       <r>    27.9260     0.0000   648.0000 </r>
       <r>    28.2174     0.0000   648.0000 </r>
       <r>    28.5089     0.0000   648.0000 </r>
       <r>    28.8003     0.0000   648.0000 </r>
      </set>
      <set comment="spin 2">
       <r>   -58.6329     0.0000     0.0000 </r>
       <r>   -58.3414     0.0000     0.0000 </r>
       <r>   -58.0500     0.0000     0.0000 </r>
       <r>   -57.7586     0.0000     0.0000 </r>
       <r>   -57.4671     0.0000     0.0000 </r>
       <r>   -57.1757     0.0000     0.0000 </r>
       <r>   -56.8842     0.0000     0.0000 </r>
       <r>   -56.5928     0.0000     0.0000 </r>
       <r>   -56.3013     0.0000     0.0000 </r>
       <r>   -56.0099     0.0000     0.0000 </r>
       <r>   -55.7184    -0.0000    -0.0000 </r>
       <r>   -55.4270    -0.0000    -0.0000 </r>
       <r>   -55.1356    -0.0000    -0.0000 </r>
       <r>   -54.8441    -0.0000    -0.0000 </r>
       <r>   -54.5527    -0.0021    -0.0006 </r>
       <r>   -54.2612    -1.9786    -0.5773 </r>
       <r>   -53.9698    15.5710     3.9608 </r>
       <r>   -53.6783   417.6284   125.6761 </r>
       <r>   -53.3869   240.4012   195.7396 </r>
       <r>   -53.0954   -12.7045   192.0369 </r>
       <r>   -52.8040    -0.1267   192.0000 </r>
       <r>   -52.5126    -0.0000   192.0000 </r>
       <r>   -52.2211    -0.0000   192.0000 </r>
       <r>   -51.9297     0.0000   192.0000 </r>
       <r>   -51.6382     0.0000   192.0000 </r>
       <r>   -51.3468     0.0000   192.0000 </r>
       <r>   -51.0553     0.0000   192.0000 </r>
       <r>   -50.7639     0.0000   192.0000 </r>
       <r>   -50.4725     0.0000   192.0000 </r>
       <r>   -50.1810     0.0000   192.0000 </r>
       <r>   -49.8896     0.0000   192.0000 </r>
       <r>   -49.5981     0.0000   192.0000 </r>
       <r>   -49.3067     0.0000   192.0000 </r>
       <r>   -49.0152     0.0000   192.0000 </r>
       <r>   -48.7238     0.0000   192.0000 </r>
       <r>   -48.4323     0.0000   192.0000 </r>
       <r>   -48.1409     0.0000   192.0000 </r>
       <r>   -47.8495     0.0000   192.0000 </r>
       <r>   -47.5580     0.0000   192.0000 </r>
       <r>   -47.2666     0.0000   192.0000 </r>
       <r>   -46.9751     0.0000   192.0000 </r>
       <r>   -46.6837     0.0000   192.0000 </r>
       <r>   -46.3922     0.0000   192.0000 </r>
       <r>   -46.1008     0.0000   192.0000 </r>
       <r>   -45.8094     0.0000   192.0000 </r>
       <r>   -45.5179     0.0000   192.0000 </r>
       <r>   -45.2265     0.0000   192.0000 </r>
       <r>   -44.9350     0.0000   192.0000 </r>
       <r>   -44.6436     0.0000   192.0000 </r>
       <r>   -44.3521     0.0000   192.0000 </r>
       <r>   -44.0607     0.0000   192.0000 </r>
       <r>   -43.7692     0.0000   192.0000 </r>
       <r>   -43.4778     0.0000   192.0000 </r>
       <r>   -43.1864     0.0000   192.0000 </r>
       <r>   -42.8949     0.0000   192.0000 </r>
       <r>   -42.6035     0.0000   192.0000 </r>
       <r>   -42.3120     0.0000   192.0000 </r>
       <r>   -42.0206     0.0000   192.0000 </r>
       <r>   -41.7291     0.0000   192.0000 </r>
       <r>   -41.4377     0.0000   192.0000 </r>
       <r>   -41.1462     0.0000   192.0000 </r>
       <r>   -40.8548     0.0000   192.0000 </r>
       <r>   -40.5634     0.0000   192.0000 </r>
       <r>   -40.2719     0.0000   192.0000 </r>
       <r>   -39.9805     0.0000   192.0000 </r>
       <r>   -39.6890     0.0000   192.0000 </r>
       <r>   -39.3976     0.0000   192.0000 </r>
       <r>   -39.1061     0.0000   192.0000 </r>
       <r>   -38.8147     0.0000   192.0000 </r>
       <r>   -38.5233     0.0000   192.0000 </r>
       <r>   -38.2318     0.0000   192.0000 </r>
       <r>   -37.9404     0.0000   192.0000 </r>
       <r>   -37.6489     0.0000   192.0000 </r>
       <r>   -37.3575     0.0000   192.0000 </r>
       <r>   -37.0660     0.0000   192.0000 </r>
       <r>   -36.7746     0.0000   192.0000 </r>
       <r>   -36.4831     0.0000   192.0000 </r>
       <r>   -36.1917     0.0000   192.0000 </r>
       <r>   -35.9003     0.0000   192.0000 </r>
       <r>   -35.6088     0.0000   192.0000 </r>
       <r>   -35.3174     0.0000   192.0000 </r>
       <r>   -35.0259     0.0000   192.0000 </r>
       <r>   -34.7345     0.0000   192.0000 </r>
       <r>   -34.4430     0.0000   192.0000 </r>
       <r>   -34.1516     0.0000   192.0000 </r>
       <r>   -33.8601     0.0000   192.0000 </r>
       <r>   -33.5687     0.0000   192.0000 </r>
       <r>   -33.2773     0.0000   192.0000 </r>
       <r>   -32.9858     0.0000   192.0000 </r>
       <r>   -32.6944     0.0000   192.0000 </r>
       <r>   -32.4029     0.0000   192.0000 </r>
       <r>   -32.1115     0.0000   192.0000 </r>
       <r>   -31.8200     0.0000   192.0000 </r>
       <r>   -31.5286     0.0000   192.0000 </r>
       <r>   -31.2372     0.0000   192.0000 </r>
       <r>   -30.9457     0.0000   192.0000 </r>
       <r>   -30.6543     0.0000   192.0000 </r>
       <r>   -30.3628     0.0000   192.0000 </r>
       <r>   -30.0714     0.0000   192.0000 </r>
       <r>   -29.7799     0.0000   192.0000 </r>
       <r>   -29.4885     0.0000   192.0000 </r>
       <r>   -29.1970     0.0000   192.0000 </r>
       <r>   -28.9056     0.0000   192.0000 </r>
       <r>   -28.6142     0.0000   192.0000 </r>
       <r>   -28.3227     0.0000   192.0000 </r>
       <r>   -28.0313     0.0000   192.0000 </r>
       <r>   -27.7398     0.0000   192.0000 </r>
       <r>   -27.4484     0.0000   192.0000 </r>
       <r>   -27.1569     0.0000   192.0000 </r>
       <r>   -26.8655     0.0000   192.0000 </r>
       <r>   -26.5740     0.0000   192.0000 </r>
       <r>   -26.2826     0.0000   192.0000 </r>
       <r>   -25.9912     0.0000   192.0000 </r>
       <r>   -25.6997     0.0000   192.0000 </r>
       <r>   -25.4083     0.0000   192.0000 </r>
       <r>   -25.1168     0.0000   192.0000 </r>
       <r>   -24.8254     0.0000   192.0000 </r>
       <r>   -24.5339     0.0000   192.0000 </r>
       <r>   -24.2425     0.0000   192.0000 </r>
       <r>   -23.9511     0.0000   192.0000 </r>
       <r>   -23.6596     0.0000   192.0000 </r>
       <r>   -23.3682     0.0000   192.0000 </r>
       <r>   -23.0767     0.0000   192.0000 </r>
       <r>   -22.7853     0.0000   192.0000 </r>
       <r>   -22.4938     0.0000   192.0000 </r>
       <r>   -22.2024     0.0000   192.0000 </r>
       <r>   -21.9109     0.0000   192.0000 </r>
       <r>   -21.6195     0.0000   192.0000 </r>
       <r>   -21.3281     0.0000   192.0000 </r>
       <r>   -21.0366     0.0000   192.0000 </r>
       <r>   -20.7452     0.0000   192.0000 </r>
       <r>   -20.4537     0.0000   192.0000 </r>
       <r>   -20.1623     0.0000   192.0000 </r>
       <r>   -19.8708     0.0000   192.0000 </r>
       <r>   -19.5794     0.0000   192.0000 </r>
       <r>   -19.2879     0.0000   192.0000 </r>
       <r>   -18.9965     0.0000   192.0000 </r>
       <r>   -18.7051     0.0000   192.0000 </r>
       <r>   -18.4136     0.0000   192.0000 </r>
       <r>   -18.1222     0.0000   192.0000 </r>
       <r>   -17.8307     0.0000   192.0000 </r>
       <r>   -17.5393     0.0000   192.0000 </r>
       <r>   -17.2478     0.0000   192.0000 </r>
       <r>   -16.9564     0.0000   192.0000 </r>
       <r>   -16.6650     0.0000   192.0000 </r>
       <r>   -16.3735     0.0000   192.0000 </r>
       <r>   -16.0821     0.0000   192.0000 </r>
       <r>   -15.7906     0.0000   192.0000 </r>
       <r>   -15.4992     0.0000   192.0000 </r>
       <r>   -15.2077     0.0000   192.0000 </r>
       <r>   -14.9163     0.0000   192.0000 </r>
       <r>   -14.6248     0.0000   192.0000 </r>
       <r>   -14.3334     0.0000   192.0000 </r>
       <r>   -14.0420     0.0000   192.0000 </r>
       <r>   -13.7505     0.0000   192.0000 </r>
       <r>   -13.4591     0.0000   192.0000 </r>
       <r>   -13.1676     0.0000   192.0000 </r>
       <r>   -12.8762     0.0000   192.0000 </r>
       <r>   -12.5847     0.0000   192.0000 </r>
       <r>   -12.2933     0.0000   192.0000 </r>
       <r>   -12.0018     0.0000   192.0000 </r>
       <r>   -11.7104     0.0000   192.0000 </r>
       <r>   -11.4190     0.0000   192.0000 </r>
       <r>   -11.1275     0.0000   192.0000 </r>
       <r>   -10.8361     0.0000   192.0000 </r>
       <r>   -10.5446     0.0000   192.0000 </r>
       <r>   -10.2532     0.0000   192.0000 </r>
       <r>    -9.9617     0.0000   192.0000 </r>
       <r>    -9.6703     0.0000   192.0000 </r>
       <r>    -9.3789     0.0000   192.0000 </r>
       <r>    -9.0874     0.0000   192.0000 </r>
       <r>    -8.7960     0.0000   192.0000 </r>
       <r>    -8.5045     0.0000   192.0000 </r>
       <r>    -8.2131     0.0000   192.0000 </r>
       <r>    -7.9216     0.0000   192.0000 </r>
       <r>    -7.6302     0.0000   192.0000 </r>
       <r>    -7.3387     0.0000   192.0000 </r>
       <r>    -7.0473     0.0000   192.0000 </r>
       <r>    -6.7559     0.0000   192.0000 </r>
       <r>    -6.4644     0.0000   192.0000 </r>
       <r>    -6.1730     0.0000   192.0000 </r>
       <r>    -5.8815     0.0000   192.0000 </r>
       <r>    -5.5901     0.0000   192.0000 </r>
       <r>    -5.2986     0.0000   192.0000 </r>
       <r>    -5.0072     0.0000   192.0000 </r>
       <r>    -4.7157     0.0000   192.0000 </r>
       <r>    -4.4243     0.0000   192.0000 </r>
       <r>    -4.1329     0.0000   192.0000 </r>
       <r>    -3.8414     0.0000   192.0000 </r>
       <r>    -3.5500     0.0000   192.0000 </r>
       <r>    -3.2585     0.0000   192.0000 </r>
       <r>    -2.9671     0.0000   192.0000 </r>
       <r>    -2.6756     0.0000   192.0000 </r>
       <r>    -2.3842     0.0000   192.0000 </r>
       <r>    -2.0928    -0.0000   192.0000 </r>
       <r>    -1.8013    -0.0000   192.0000 </r>
       <r>    -1.5099    -0.0000   192.0000 </r>
       <r>    -1.2184    -0.0000   192.0000 </r>
       <r>    -0.9270    -0.0001   192.0000 </r>
       <r>    -0.6355    -0.0049   191.9985 </r>
       <r>    -0.3441     0.0489   192.0128 </r>
       <r>    -0.0526     1.0302   192.3130 </r>
       <r>     0.2388     0.9085   192.5778 </r>
       <r>     0.5302     1.4863   193.0110 </r>
       <r>     0.8217     3.6857   194.0851 </r>
       <r>     1.1131     0.5598   194.2483 </r>
       <r>     1.4046     2.6002   195.0061 </r>
       <r>     1.6960     4.3264   196.2670 </r>
       <r>     1.9875     3.3608   197.2465 </r>
       <r>     2.2789     3.5018   198.2671 </r>
       <r>     2.5704     1.1441   198.6005 </r>
       <r>     2.8618     9.3667   201.3304 </r>
       <r>     3.1532     4.1562   202.5417 </r>
       <r>     3.4447     6.1552   204.3356 </r>
       <r>     3.7361     3.0397   205.2215 </r>
       <r>     4.0276    12.1033   208.7489 </r>
       <r>     4.3190    14.5856   212.9998 </r>
       <r>     4.6105    20.6102   219.0065 </r>
       <r>     4.9019    25.4590   226.4264 </r>
       <r>     5.1933    35.9732   236.9106 </r>
       <r>     5.4848    36.2920   247.4876 </r>
       <r>     5.7762    46.9130   261.1601 </r>
       <r>     6.0677    49.5576   275.6034 </r>
       <r>     6.3591    42.1383   287.8844 </r>
       <r>     6.6506    43.2282   300.4830 </r>
       <r>     6.9420    56.2702   316.8826 </r>
       <r>     7.2335    60.9056   334.6332 </r>
       <r>     7.5249    72.4030   355.7346 </r>
       <r>     7.8163    80.8596   379.3006 </r>
       <r>     8.1078    60.2209   396.8516 </r>
       <r>     8.3992    54.0136   412.5936 </r>
       <r>     8.6907    69.2268   432.7693 </r>
       <r>     8.9821    59.0815   449.9882 </r>
       <r>     9.2736    64.4112   468.7605 </r>
       <r>     9.5650    62.7146   487.0383 </r>
       <r>     9.8565    95.9215   514.9940 </r>
       <r>    10.1479    45.7541   528.3288 </r>
       <r>    10.4393    20.9431   534.4325 </r>
       <r>    10.7308    11.9665   537.9201 </r>
       <r>    11.0222     2.8578   538.7530 </r>
       <r>    11.3137     7.5689   540.9589 </r>
       <r>    11.6051    11.5350   544.3207 </r>
       <r>    11.8966    11.8389   547.7711 </r>
       <r>    12.1880    10.5512   550.8462 </r>
       <r>    12.4794     4.7487   552.2301 </r>
       <r>    12.7709     6.2151   554.0415 </r>
       <r>    13.0623     8.2026   556.4321 </r>
       <r>    13.3538     7.0440   558.4850 </r>
       <r>    13.6452    12.0078   561.9846 </r>
       <r>    13.9367     2.1810   562.6203 </r>
       <r>    14.2281     8.5143   565.1017 </r>
       <r>    14.5196     9.3520   567.8273 </r>
       <r>    14.8110    -0.1805   567.7747 </r>
       <r>    15.1024    -0.0810   567.7511 </r>
       <r>    15.3939    11.5321   571.1120 </r>
       <r>    15.6853     3.0280   571.9945 </r>
       <r>    15.9768     3.6852   573.0686 </r>
       <r>    16.2682     2.2018   573.7103 </r>
       <r>    16.5597     7.0837   575.7748 </r>
       <r>    16.8511     2.8123   576.5944 </r>
       <r>    17.1425     8.1526   578.9704 </r>
       <r>    17.4340    10.3716   581.9932 </r>
       <r>    17.7254     8.6504   584.5143 </r>
       <r>    18.0169     7.0185   586.5598 </r>
       <r>    18.3083    12.1704   590.1067 </r>
       <r>    18.5998     5.3226   591.6580 </r>
       <r>    18.8912    13.4474   595.5771 </r>
       <r>    19.1827     4.8725   596.9972 </r>
       <r>    19.4741     7.8331   599.2801 </r>
       <r>    19.7655     4.2109   600.5074 </r>
       <r>    20.0570     6.1690   602.3053 </r>
       <r>    20.3484     8.5695   604.8028 </r>
       <r>    20.6399     7.3527   606.9457 </r>
       <r>    20.9313     8.5584   609.4400 </r>
       <r>    21.2228     8.5344   611.9273 </r>
       <r>    21.5142    10.0154   614.8463 </r>
       <r>    21.8057    13.1033   618.6651 </r>
       <r>    22.0971    17.1833   623.6731 </r>
       <r>    22.3885     6.3914   625.5358 </r>
       <r>    22.6800    13.9653   629.6059 </r>
       <r>    22.9714     9.6652   632.4228 </r>
       <r>    23.2629     9.0521   635.0610 </r>
       <r>    23.5543     2.8292   635.8855 </r>
       <r>    23.8458    13.1184   639.7088 </r>
       <r>    24.1372    17.3874   644.7763 </r>
       <r>    24.4286     6.0110   646.5281 </r>
       <r>    24.7201     2.3017   647.1990 </r>
       <r>    25.0115     2.8336   648.0248 </r>
       <r>    25.3030    -0.0805   648.0013 </r>
       <r>    25.5944    -0.0046   648.0000 </r>
       <r>    25.8859    -0.0000   648.0000 </r>
       <r>    26.1773    -0.0000   648.0000 </r>
       <r>    26.4688     0.0000   648.0000 </r>
       <r>    26.7602     0.0000   648.0000 </r>
       <r>    27.0516     0.0000   648.0000 </r>
       <r>    27.3431     0.0000   648.0000 </r>
       <r>    27.6345     0.0000   648.0000 </r>
       <r>    27.9260     0.0000   648.0000 </r>
       <r>    28.2174     0.0000   648.0000 </r>
       <r>    28.5089     0.0000   648.0000 </r>
       <r>    28.8003     0.0000   648.0000 </r>
      </set>
     </set>
    </array>
   </total>
  </dos>
 </calculation>
 <structure name="finalpos" >
  <crystal>
   <varray name="basis" >
    <v>       0.00000000       6.73275000       6.73275000 </v>
    <v>       6.73275000       0.00000000       6.73275000 </v>
    <v>       6.73275000       6.73275000       0.00000000 </v>
   </varray>
   <i name="volume">    610.39007227 </i>
   <varray name="rec_basis" >
    <v>      -0.07426386       0.07426386       0.07426386 </v>
    <v>       0.07426386      -0.07426386       0.07426386 </v>
    <v>       0.07426386       0.07426386      -0.07426386 </v>
   </varray>
  </crystal>
  <varray name="positions" >
   <v>       0.00111396      -0.00111396      -0.00111396 </v>
   <v>       0.00000000       0.00000000       0.25000000 </v>
   <v>       0.00000000       0.00000000       0.50000000 </v>
   <v>       0.00000000       0.00000000       0.75000000 </v>
   <v>       0.00000000       0.25000000       0.00000000 </v>
   <v>       0.00000000       0.25000000       0.25000000 </v>
   <v>       0.00000000       0.25000000       0.50000000 </v>
   <v>       0.00000000       0.25000000       0.75000000 </v>
   <v>       0.00000000       0.50000000       0.00000000 </v>
   <v>       0.00000000       0.50000000       0.25000000 </v>
   <v>       0.00000000       0.50000000       0.50000000 </v>
   <v>       0.00000000       0.50000000       0.75000000 </v>
   <v>       0.00000000       0.75000000       0.00000000 </v>
   <v>       0.00000000       0.75000000       0.25000000 </v>
   <v>       0.00000000       0.75000000       0.50000000 </v>
   <v>       0.00000000       0.75000000       0.75000000 </v>
   <v>       0.25000000       0.00000000       0.00000000 </v>
   <v>       0.25000000       0.00000000       0.25000000 </v>
   <v>       0.25000000       0.00000000       0.50000000 </v>
   <v>       0.25000000       0.00000000       0.75000000 </v>
   <v>       0.25000000       0.25000000       0.00000000 </v>
   <v>       0.25000000       0.25000000       0.25000000 </v>
   <v>       0.25000000       0.25000000       0.50000000 </v>
   <v>       0.25000000       0.25000000       0.75000000 </v>
   <v>       0.25000000       0.50000000       0.00000000 </v>
   <v>       0.25000000       0.50000000       0.25000000 </v>
   <v>       0.25000000       0.50000000       0.50000000 </v>
   <v>       0.25000000       0.50000000       0.75000000 </v>
   <v>       0.25000000       0.75000000       0.00000000 </v>
   <v>       0.25000000       0.75000000       0.25000000 </v>
   <v>       0.25000000       0.75000000       0.50000000 </v>
   <v>       0.25000000       0.75000000       0.75000000 </v>
   <v>       0.50000000       0.00000000       0.00000000 </v>
   <v>       0.50000000       0.00000000       0.25000000 </v>
   <v>       0.50000000       0.00000000       0.50000000 </v>
   <v>       0.50000000       0.00000000       0.75000000 </v>
   <v>       0.50000000       0.25000000       0.00000000 </v>
   <v>       0.50000000       0.25000000       0.25000000 </v>
   <v>       0.50000000       0.25000000       0.50000000 </v>
   <v>       0.50000000       0.25000000       0.75000000 </v>
   <v>       0.50000000       0.50000000       0.00000000 </v>
   <v>       0.50000000       0.50000000       0.25000000 </v>
   <v>       0.50000000       0.50000000       0.50000000 </v>
   <v>       0.50000000       0.50000000       0.75000000 </v>
   <v>       0.50000000       0.75000000       0.00000000 </v>
   <v>       0.50000000       0.75000000       0.25000000 </v>
   <v>       0.50000000       0.75000000       0.50000000 </v>
   <v>       0.50000000       0.75000000       0.75000000 </v>
   <v>       0.75000000       0.00000000       0.00000000 </v>
   <v>       0.75000000       0.00000000       0.25000000 </v>
   <v>       0.75000000       0.00000000       0.50000000 </v>
   <v>       0.75000000       0.00000000       0.75000000 </v>
   <v>       0.75000000       0.25000000       0.00000000 </v>
   <v>       0.75000000       0.25000000       0.25000000 </v>
   <v>       0.75000000       0.25000000       0.50000000 </v>
   <v>       0.75000000       0.25000000       0.75000000 </v>
   <v>       0.75000000       0.50000000       0.00000000 </v>
   <v>       0.75000000       0.50000000       0.25000000 </v>
   <v>       0.75000000       0.50000000       0.50000000 </v>
   <v>       0.75000000       0.50000000       0.75000000 </v>
   <v>       0.75000000       0.75000000       0.00000000 </v>
   <v>       0.75000000       0.75000000       0.25000000 </v>
   <v>       0.75000000       0.75000000       0.50000000 </v>
   <v>       0.75000000       0.75000000       0.75000000 </v>
  </varray>
 </structure>
</modeling>
