       N       E                     dE             d eps       ncg     rms          rms(c)
DAV:   1     0.152335452826E+05    0.15234E+05   -0.61669E+05 11744   0.212E+03
DAV:   2     0.957936480834E+03   -0.14276E+05   -0.13894E+05 10368   0.688E+02
DAV:   3    -0.342054821356E+03   -0.13000E+04   -0.10833E+04 10576   0.225E+02
DAV:   4    -0.418434704771E+03   -0.76380E+02   -0.73760E+02 11128   0.540E+01
DAV:   5    -0.419785498152E+03   -0.13508E+01   -0.13487E+01 11032   0.710E+00    0.675E+01
DAV:   6    -0.401725172434E+03    0.18060E+02   -0.69077E+02 10872   0.764E+01    0.614E+01
DAV:   7    -0.359068357730E+03    0.42657E+02   -0.16302E+02 10800   0.372E+01    0.616E+00
DAV:   8    -0.359294178011E+03   -0.22582E+00   -0.18226E+00 10896   0.278E+00    0.332E+00
DAV:   9    -0.359180567448E+03    0.11361E+00   -0.34837E-01 11192   0.106E+00    0.833E-01
DAV:  10    -0.359187231829E+03   -0.66644E-02   -0.17559E-02 11672   0.258E-01    0.362E-01
DAV:  11    -0.359190938317E+03   -0.37065E-02   -0.89171E-03 11008   0.217E-01    0.139E-01
DAV:  12    -0.359191010424E+03   -0.72106E-04   -0.93629E-04 11312   0.687E-02    0.247E-02
DAV:  13    -0.359191011032E+03   -0.60871E-06   -0.62361E-05 11496   0.186E-02    0.201E-02
DAV:  14    -0.359190992948E+03    0.18085E-04   -0.62051E-06  8152   0.570E-03    0.106E-02
DAV:  15    -0.359190985113E+03    0.78346E-05   -0.32563E-06  7480   0.505E-03    0.115E-03
DAV:  16    -0.359190985583E+03   -0.46991E-06   -0.17041E-07  5456   0.101E-03
   1 F= -.35919099E+03 E0= -.35915966E+03  d E =-.939898E-01  mag=    46.0276
 Found     1 degrees of freedom:
       N       E                     dE             d eps       ncg     rms          rms(c)
DAV:   1    -0.359093984873E+03    0.97000E-01   -0.23027E+00 20632   0.150E+01    0.570E-01
DAV:   2    -0.359190688279E+03   -0.96703E-01   -0.95002E-01 16024   0.151E+00    0.121E+00
DAV:   3    -0.359194681861E+03   -0.39936E-02   -0.42801E-02 20144   0.907E-01    0.142E+00
DAV:   4    -0.359192739803E+03    0.19421E-02   -0.65373E-03 18240   0.611E-01    0.975E-01
DAV:   5    -0.359190784512E+03    0.19553E-02   -0.14651E-03 17088   0.370E-01    0.199E-01
DAV:   6    -0.359190776875E+03    0.76366E-05   -0.34140E-04 20624   0.886E-02    0.176E-01
DAV:   7    -0.359190720498E+03    0.56378E-04   -0.71089E-05 17472   0.609E-02    0.149E-01
DAV:   8    -0.359190699466E+03    0.21032E-04   -0.52633E-05 17328   0.628E-02    0.148E-01
DAV:   9    -0.359190707012E+03   -0.75458E-05   -0.12153E-04 17376   0.107E-01    0.220E-01
DAV:  10    -0.359190573926E+03    0.13309E-03   -0.12543E-04 20728   0.993E-02    0.501E-02
DAV:  11    -0.359190578929E+03   -0.50027E-05   -0.39834E-05 22856   0.377E-02    0.642E-02
DAV:  12    -0.359190571704E+03    0.72253E-05   -0.15643E-05 17736   0.323E-02    0.375E-02
DAV:  13    -0.359190569629E+03    0.20747E-05   -0.56123E-06 16160   0.161E-02    0.132E-02
DAV:  14    -0.359190570195E+03   -0.56563E-06   -0.13700E-06  8728   0.934E-03
   2 F= -.35919057E+03 E0= -.35915924E+03  d E =-.939835E-01  mag=    46.0276
       N       E                     dE             d eps       ncg     rms          rms(c)
DAV:   1    -0.358838942556E+03    0.35163E+00   -0.81423E+00 20648   0.276E+01    0.111E+00
DAV:   2    -0.359211382410E+03   -0.37244E+00   -0.34569E+00 16120   0.283E+00    0.375E+00
DAV:   3    -0.359196263792E+03    0.15119E-01   -0.18335E-01 19536   0.167E+00    0.166E+00
DAV:   4    -0.359206408396E+03   -0.10145E-01   -0.25894E-02 19472   0.131E+00    0.268E+00
DAV:   5    -0.359191559424E+03    0.14849E-01   -0.10284E-02 16920   0.968E-01    0.535E-01
DAV:   6    -0.359191242936E+03    0.31649E-03   -0.16953E-03 20296   0.233E-01    0.316E-01
DAV:   7    -0.359191146302E+03    0.96634E-04   -0.42556E-04 17696   0.137E-01    0.319E-01
DAV:   8    -0.359190956155E+03    0.19015E-03   -0.24248E-04 17304   0.131E-01    0.256E-01
DAV:   9    -0.359191054355E+03   -0.98200E-04   -0.34143E-04 17328   0.171E-01    0.386E-01
DAV:  10    -0.359190658639E+03    0.39572E-03   -0.44706E-04 19408   0.194E-01    0.218E-01
DAV:  11    -0.359190581604E+03    0.77035E-04   -0.19973E-04 21264   0.905E-02    0.824E-02
DAV:  12    -0.359190601509E+03   -0.19905E-04   -0.66688E-05 21544   0.658E-02    0.119E-01
DAV:  13    -0.359190569868E+03    0.31641E-04   -0.43141E-05 18080   0.579E-02    0.307E-02
DAV:  14    -0.359190579379E+03   -0.95106E-05   -0.15566E-05 19976   0.312E-02    0.699E-02
DAV:  15    -0.359190570006E+03    0.93726E-05   -0.96555E-06 16840   0.286E-02    0.163E-02
DAV:  16    -0.359190569978E+03    0.28085E-07   -0.18688E-06  8896   0.105E-02
   3 F= -.35919057E+03 E0= -.35915924E+03  d E =-.939809E-01  mag=    46.0277
