 vasp.5.4.1 05Feb16 (build Oct 12 2016 17:31:35) complex                        
  
 executed on           IFC91_ompi date 2020.09.07  23:17:52
 running on    4 total cores
 distrk:  each k-point on    4 cores,    1 groups
 distr:  one band on NCORES_PER_BAND=   1 cores,    4 groups


--------------------------------------------------------------------------------------------------------


 INCAR:
 POTCAR:   PAW_PBE Ni_pv 06Sep2000                
 POTCAR:   PAW_PBE Ni_pv 06Sep2000                
  local pseudopotential read in
  partial core-charges read in
  atomic valenz-charges read in
  non local Contribution for L=           1  read in
    real space projection operators read in
  non local Contribution for L=           1  read in
    real space projection operators read in
  non local Contribution for L=           2  read in
    real space projection operators read in
  non local Contribution for L=           2  read in
    real space projection operators read in
  non local Contribution for L=           0  read in
    real space projection operators read in
  non local Contribution for L=           0  read in
    real space projection operators read in
    PAW grid and wavefunctions read in
 
   number of l-projection  operators is LMAX  =           6
   number of lm-projection operators is LMMAX =          18
 
 Optimization of the real space projectors (new method)

 maximal supplied QI-value         = 18.90
 optimisation between [QCUT,QGAM] = [ 10.96, 27.40] = [ 33.64,210.25] Ry 
 Optimized for a Real-space Cutoff    1.19 Angstroem

   l    n(q)    QCUT    max X(q) W(low)/X(q) W(high)/X(q)  e(spline) 
   1      9    10.960     3.231    0.64E-06    0.38E-05    0.29E-07
   1      9    10.960     4.241    0.27E-04    0.99E-05    0.15E-06
   2      9    10.960     3.566    0.37E-04    0.13E-04    0.55E-07
   2      9    10.960    20.429    0.20E-03    0.15E-04    0.28E-06
   0     10    10.960    19.799    0.13E-04    0.31E-05    0.11E-07
   0     10    10.960    52.283    0.57E-04    0.26E-04    0.65E-07
 PAW_PBE Ni_pv 06Sep2000                :
 energy of atom  1       EATOM=-3500.3496
 kinetic energy error for atom=    0.0894 (will be added to EATOM!!)
 
 
 POSCAR: Supercell by Yi Wang                    
  positions in direct lattice
  No initial velocities read in
 exchange correlation table for  LEXCH =        8
   RHO(1)=    0.500       N(1)  =     2000
   RHO(2)=  100.500       N(2)  =     4000
 


--------------------------------------------------------------------------------------------------------


 ion  position               nearest neighbor table
   1  0.000  0.000  0.000-
   2  0.000  0.000  0.250-
   3  0.000  0.000  0.500-
   4  0.000  0.000  0.750-
   5  0.000  0.250  0.000-
   6  0.000  0.250  0.250-
   7  0.000  0.250  0.500-
   8  0.000  0.250  0.750-
   9  0.000  0.500  0.000-
  10  0.000  0.500  0.250-
  11  0.000  0.500  0.500-
  12  0.000  0.500  0.750-
  13  0.000  0.750  0.000-
  14  0.000  0.750  0.250-
  15  0.000  0.750  0.500-
  16  0.000  0.750  0.750-
  17  0.250  0.000  0.000-
  18  0.250  0.000  0.250-
  19  0.250  0.000  0.500-
  20  0.250  0.000  0.750-
  21  0.250  0.250  0.000-
  22  0.250  0.250  0.250-
  23  0.250  0.250  0.500-
  24  0.250  0.250  0.750-
  25  0.250  0.500  0.000-
  26  0.250  0.500  0.250-
  27  0.250  0.500  0.500-
  28  0.250  0.500  0.750-
  29  0.250  0.750  0.000-
  30  0.250  0.750  0.250-
  31  0.250  0.750  0.500-
  32  0.250  0.750  0.750-
  33  0.500  0.000  0.000-
  34  0.500  0.000  0.250-
  35  0.500  0.000  0.500-
  36  0.500  0.000  0.750-
  37  0.500  0.250  0.000-
  38  0.500  0.250  0.250-
  39  0.500  0.250  0.500-
  40  0.500  0.250  0.750-
  41  0.500  0.500  0.000-
  42  0.500  0.500  0.250-
  43  0.500  0.500  0.500-
  44  0.500  0.500  0.750-
  45  0.500  0.750  0.000-
  46  0.500  0.750  0.250-
  47  0.500  0.750  0.500-
  48  0.500  0.750  0.750-
  49  0.750  0.000  0.000-
  50  0.750  0.000  0.250-
  51  0.750  0.000  0.500-
  52  0.750  0.000  0.750-
  53  0.750  0.250  0.000-
  54  0.750  0.250  0.250-
  55  0.750  0.250  0.500-
  56  0.750  0.250  0.750-
  57  0.750  0.500  0.000-
  58  0.750  0.500  0.250-
  59  0.750  0.500  0.500-
  60  0.750  0.500  0.750-
  61  0.750  0.750  0.000-
  62  0.750  0.750  0.250-
  63  0.750  0.750  0.500-
  64  0.750  0.750  0.750-
 
  LATTYP: Found a face centered cubic cell.
 ALAT       =    14.9460000000
  
  Lattice vectors:
  
 A1 = (   0.0000000000,   7.4730000000,   7.4730000000)
 A2 = (   7.4730000000,   0.0000000000,   7.4730000000)
 A3 = (   7.4730000000,   7.4730000000,   0.0000000000)


Analysis of symmetry for initial positions (statically):
=====================================================================
 Subroutine PRICEL returns following result:
 
  LATTYP: Found a face centered cubic cell.
 ALAT       =     3.7365000000
  
  Lattice vectors:
  
 A1 = (   0.0000000000,   1.8682500000,   1.8682500000)
 A2 = (   1.8682500000,   0.0000000000,   1.8682500000)
 A3 = (   1.8682500000,   1.8682500000,   0.0000000000)
 
  64 primitive cells build up your supercell.
 

 Routine SETGRP: Setting up the symmetry group for a 
 face centered cubic supercell.


 Subroutine GETGRP returns: Found 48 space group operations
 (whereof 48 operations were pure point group operations)
 out of a pool of 48 trial point group operations.


The static configuration has the point symmetry O_h .


Analysis of symmetry for dynamics (positions and initial velocities):
=====================================================================
 Subroutine PRICEL returns following result:
 
  LATTYP: Found a face centered cubic cell.
 ALAT       =     3.7365000000
  
  Lattice vectors:
  
 A1 = (   0.0000000000,   1.8682500000,   1.8682500000)
 A2 = (   1.8682500000,   0.0000000000,   1.8682500000)
 A3 = (   1.8682500000,   1.8682500000,   0.0000000000)
 
  64 primitive cells build up your supercell.
 

 Routine SETGRP: Setting up the symmetry group for a 
 face centered cubic supercell.


 Subroutine GETGRP returns: Found 48 space group operations
 (whereof 48 operations were pure point group operations)
 out of a pool of 48 trial point group operations.


The dynamic configuration has the point symmetry O_h .


Analysis of structural, dynamic, and magnetic symmetry:
=====================================================================
 Subroutine PRICEL returns following result:
 
  LATTYP: Found a face centered cubic cell.
 ALAT       =     3.7365000000
  
  Lattice vectors:
  
 A1 = (   0.0000000000,   1.8682500000,   1.8682500000)
 A2 = (   1.8682500000,   0.0000000000,   1.8682500000)
 A3 = (   1.8682500000,   1.8682500000,   0.0000000000)
 
  64 primitive cells build up your supercell.
 

 Routine SETGRP: Setting up the symmetry group for a 
 face centered cubic supercell.


 Subroutine GETGRP returns: Found 48 space group operations
 (whereof 48 operations were pure point group operations)
 out of a pool of 48 trial point group operations.


The magnetic configuration has the point symmetry O_h .


 Subroutine INISYM returns: Found 48 space group operations
 (whereof 48 operations are pure point group operations),
 and found    64 'primitive' translations

 
 
 KPOINTS: Zr 15x15x15                             

Automatic generation of k-mesh.
Space group operators:
 irot       det(A)        alpha          n_x          n_y          n_z        tau_x        tau_y        tau_z
    1     1.000000     0.000000     1.000000     0.000000     0.000000     0.000000     0.000000     0.000000
    2    -1.000000     0.000000     1.000000     0.000000     0.000000     0.000000     0.000000     0.000000
    3     1.000000   120.000000    -0.577350    -0.577350    -0.577350     0.000000     0.000000     0.000000
    4    -1.000000   120.000000    -0.577350    -0.577350    -0.577350     0.000000     0.000000     0.000000
    5     1.000000   120.000000     0.577350     0.577350     0.577350     0.000000     0.000000     0.000000
    6    -1.000000   120.000000     0.577350     0.577350     0.577350     0.000000     0.000000     0.000000
    7     1.000000    90.000000     0.000000     0.000000    -1.000000     0.000000     0.000000     0.000000
    8    -1.000000    90.000000     0.000000     0.000000    -1.000000     0.000000     0.000000     0.000000
    9     1.000000   180.000000     0.000000     0.707107     0.707107     0.000000     0.000000     0.000000
   10    -1.000000   180.000000     0.000000     0.707107     0.707107     0.000000     0.000000     0.000000
   11     1.000000    90.000000     0.000000     1.000000     0.000000     0.000000     0.000000     0.000000
   12    -1.000000    90.000000     0.000000     1.000000     0.000000     0.000000     0.000000     0.000000
   13     1.000000   180.000000     0.000000     0.000000     1.000000     0.000000     0.000000     0.000000
   14    -1.000000   180.000000     0.000000     0.000000     1.000000     0.000000     0.000000     0.000000
   15     1.000000   120.000000    -0.577350     0.577350     0.577350     0.000000     0.000000     0.000000
   16    -1.000000   120.000000    -0.577350     0.577350     0.577350     0.000000     0.000000     0.000000
   17     1.000000   120.000000    -0.577350     0.577350    -0.577350     0.000000     0.000000     0.000000
   18    -1.000000   120.000000    -0.577350     0.577350    -0.577350     0.000000     0.000000     0.000000
   19     1.000000    90.000000     0.000000     0.000000     1.000000     0.000000     0.000000     0.000000
   20    -1.000000    90.000000     0.000000     0.000000     1.000000     0.000000     0.000000     0.000000
   21     1.000000    90.000000    -1.000000     0.000000     0.000000     0.000000     0.000000     0.000000
   22    -1.000000    90.000000    -1.000000     0.000000     0.000000     0.000000     0.000000     0.000000
   23     1.000000   180.000000     0.707107     0.000000     0.707107     0.000000     0.000000     0.000000
   24    -1.000000   180.000000     0.707107     0.000000     0.707107     0.000000     0.000000     0.000000
   25     1.000000   120.000000     0.577350    -0.577350     0.577350     0.000000     0.000000     0.000000
   26    -1.000000   120.000000     0.577350    -0.577350     0.577350     0.000000     0.000000     0.000000
   27     1.000000   120.000000    -0.577350    -0.577350     0.577350     0.000000     0.000000     0.000000
   28    -1.000000   120.000000    -0.577350    -0.577350     0.577350     0.000000     0.000000     0.000000
   29     1.000000   180.000000     1.000000     0.000000     0.000000     0.000000     0.000000     0.000000
   30    -1.000000   180.000000     1.000000     0.000000     0.000000     0.000000     0.000000     0.000000
   31     1.000000    90.000000     0.000000    -1.000000     0.000000     0.000000     0.000000     0.000000
   32    -1.000000    90.000000     0.000000    -1.000000     0.000000     0.000000     0.000000     0.000000
   33     1.000000   180.000000     0.707107     0.707107     0.000000     0.000000     0.000000     0.000000
   34    -1.000000   180.000000     0.707107     0.707107     0.000000     0.000000     0.000000     0.000000
   35     1.000000    90.000000     1.000000     0.000000     0.000000     0.000000     0.000000     0.000000
   36    -1.000000    90.000000     1.000000     0.000000     0.000000     0.000000     0.000000     0.000000
   37     1.000000   120.000000     0.577350    -0.577350    -0.577350     0.000000     0.000000     0.000000
   38    -1.000000   120.000000     0.577350    -0.577350    -0.577350     0.000000     0.000000     0.000000
   39     1.000000   180.000000     0.000000     1.000000     0.000000     0.000000     0.000000     0.000000
   40    -1.000000   180.000000     0.000000     1.000000     0.000000     0.000000     0.000000     0.000000
   41     1.000000   120.000000     0.577350     0.577350    -0.577350     0.000000     0.000000     0.000000
   42    -1.000000   120.000000     0.577350     0.577350    -0.577350     0.000000     0.000000     0.000000
   43     1.000000   180.000000     0.000000    -0.707107     0.707107     0.000000     0.000000     0.000000
   44    -1.000000   180.000000     0.000000    -0.707107     0.707107     0.000000     0.000000     0.000000
   45     1.000000   180.000000     0.707107    -0.707107     0.000000     0.000000     0.000000     0.000000
   46    -1.000000   180.000000     0.707107    -0.707107     0.000000     0.000000     0.000000     0.000000
   47     1.000000   180.000000     0.707107     0.000000    -0.707107     0.000000     0.000000     0.000000
   48    -1.000000   180.000000     0.707107     0.000000    -0.707107     0.000000     0.000000     0.000000
 
 Subroutine IBZKPT returns following result:
 ===========================================
 
 Found      4 irreducible k-points:
 
 Following reciprocal coordinates:
            Coordinates               Weight
  0.000000  0.000000  0.000000      1.000000
  0.333333  0.000000  0.000000      8.000000
  0.333333  0.333333  0.000000      6.000000
 -0.333333  0.333333  0.000000     12.000000
 
 Following cartesian coordinates:
            Coordinates               Weight
  0.000000  0.000000  0.000000      1.000000
 -0.022303  0.022303  0.022303      8.000000
  0.000000  0.000000  0.044605      6.000000
  0.044605 -0.044605  0.000000     12.000000
 
 
 Subroutine IBZKPT_HF returns following result:
 ==============================================
 
 Found     27 k-points in 1st BZ
 the following     27 k-points will be used (e.g. in the exchange kernel)
 Following reciprocal coordinates:   # in IRBZ
  0.000000  0.000000  0.000000    0.03703704   1 t-inv F
  0.333333  0.000000  0.000000    0.03703704   2 t-inv F
  0.333333  0.333333  0.000000    0.03703704   3 t-inv F
 -0.333333  0.333333  0.000000    0.03703704   4 t-inv F
 -0.333333  0.000000  0.000000    0.03703704   2 t-inv F
  0.000000  0.333333  0.000000    0.03703704   2 t-inv F
  0.000000 -0.333333  0.000000    0.03703704   2 t-inv F
  0.000000  0.000000  0.333333    0.03703704   2 t-inv F
  0.000000  0.000000 -0.333333    0.03703704   2 t-inv F
  0.333333  0.333333  0.333333    0.03703704   2 t-inv F
 -0.333333 -0.333333 -0.333333    0.03703704   2 t-inv F
 -0.333333 -0.333333  0.000000    0.03703704   3 t-inv F
  0.000000  0.333333  0.333333    0.03703704   3 t-inv F
  0.000000 -0.333333 -0.333333    0.03703704   3 t-inv F
  0.333333  0.000000  0.333333    0.03703704   3 t-inv F
 -0.333333  0.000000 -0.333333    0.03703704   3 t-inv F
  0.333333 -0.333333  0.000000    0.03703704   4 t-inv F
  0.000000 -0.333333  0.333333    0.03703704   4 t-inv F
  0.000000  0.333333 -0.333333    0.03703704   4 t-inv F
  0.333333  0.000000 -0.333333    0.03703704   4 t-inv F
 -0.333333  0.000000  0.333333    0.03703704   4 t-inv F
  0.333333  0.333333  0.666667    0.03703704   4 t-inv F
 -0.333333 -0.333333 -0.666667    0.03703704   4 t-inv F
 -0.333333 -0.666667 -0.333333    0.03703704   4 t-inv F
  0.333333  0.666667  0.333333    0.03703704   4 t-inv F
 -0.666667 -0.333333 -0.333333    0.03703704   4 t-inv F
  0.666667  0.333333  0.333333    0.03703704   4 t-inv F


--------------------------------------------------------------------------------------------------------




 Dimension of arrays:
   k-points           NKPTS =      4   k-points in BZ     NKDIM =      4   number of bands    NBANDS=    648
   number of dos      NEDOS =    301   number of ions     NIONS =     64
   non local maximal  LDIM  =      6   non local SUM 2l+1 LMDIM =     18
   total plane-waves  NPLWV = 512000
   max r-space proj   IRMAX =   4423   max aug-charges    IRDMAX=   6813
   dimension x,y,z NGX =    80 NGY =   80 NGZ =   80
   dimension x,y,z NGXF=   126 NGYF=  126 NGZF=  126
   support grid    NGXF=   126 NGYF=  126 NGZF=  126
   ions per type =              64
 NGX,Y,Z   is equivalent  to a cutoff of  12.58, 12.58, 12.58 a.u.
 NGXF,Y,Z  is equivalent  to a cutoff of  19.82, 19.82, 19.82 a.u.


 I would recommend the setting:
   dimension x,y,z NGX =    74 NGY =   74 NGZ =   74
 SYSTEM =  phonon of Zr bcc - omiga                
 POSCAR =  Supercell by Yi Wang                    

 Startparameter for this run:
   NWRITE =      0    write-flag & timer
   PREC   = h         normal or accurate (medium, high low for compatibility)
   ISTART =      0    job   : 0-new  1-cont  2-samecut
   ICHARG =      2    charge: 1-file 2-atom 10-const
   ISPIN  =      2    spin polarized calculation?
   LNONCOLLINEAR =      F non collinear calculations
   LSORBIT =      F    spin-orbit coupling
   INIWAV =      1    electr: 0-lowe 1-rand  2-diag
   LASPH  =      F    aspherical Exc in radial PAW
   METAGGA=      F    non-selfconsistent MetaGGA calc.

 Electronic Relaxation 1
   ENCUT  =  459.9 eV  33.80 Ry    5.81 a.u.  18.48 18.48 18.48*2*pi/ulx,y,z
   ENINI  =  459.9     initial cutoff
   ENAUG  =  703.4 eV  augmentation charge cutoff
   NELM   =     60;   NELMIN=  2; NELMDL=  0     # of ELM steps 
   EDIFF  = 0.1E-05   stopping-criterion for ELM
   LREAL  =      T    real-space projection
   NLSPLINE    = F    spline interpolate recip. space projectors
   LCOMPAT=      F    compatible to vasp.4.4
   GGA_COMPAT  = T    GGA compatible to vasp.4.4-vasp.4.6
   LMAXPAW     = -100 max onsite density
   LMAXMIX     =    2 max onsite mixed and CHGCAR
   VOSKOWN=      0    Vosko Wilk Nusair interpolation
   ROPT   =   -0.00040
 Ionic relaxation
   EDIFFG = 0.1E-04   stopping-criterion for IOM
   NSW    =    805    number of steps for IOM
   NBLOCK =      1;   KBLOCK =      1    inner block; outer block 
   IBRION =      6    ionic relax: 0-MD 1-quasi-New 2-CG
   NFREE  =      2    steps in history (QN), initial steepest desc. (CG)
   ISIF   =      2    stress and relaxation
   IWAVPR =     11    prediction:  0-non 1-charg 2-wave 3-comb
   ISYM   =      2    0-nonsym 1-usesym 2-fastsym
   LCORR  =      T    Harris-Foulkes like correction to forces

   POTIM  = 0.5000    time-step for ionic-motion
   TEIN   =    0.0    initial temperature
   TEBEG  =    0.0;   TEEND  =   0.0 temperature during run
   SMASS  =  -3.00    Nose mass-parameter (am)
   estimated Nose-frequenzy (Omega)   =  0.10E-29 period in steps =****** mass=  -0.255E-26a.u.
   SCALEE = 1.0000    scale energy and forces
   NPACO  =    256;   APACO  = 16.0  distance and # of slots for P.C.
   PSTRESS=    0.0 pullay stress

  Mass of Ions in am
   POMASS =  58.69
  Ionic Valenz
   ZVAL   =  16.00
  Atomic Wigner-Seitz radii
   RWIGS  =  -1.00
  virtual crystal weights 
   VCA    =   1.00
   NELECT =    1024.0000    total number of electrons
   NUPDOWN=      -1.0000    fix difference up-down

 DOS related values:
   EMIN   =  10.00;   EMAX   =-10.00  energy-range for DOS
   EFERMI =   0.00
   ISMEAR =     1;   SIGMA  =   0.20  broadening in eV -4-tet -1-fermi 0-gaus

 Electronic relaxation 2 (details)
   IALGO  =     38    algorithm
   LDIAG  =      T    sub-space diagonalisation (order eigenvalues)
   LSUBROT=      F    optimize rotation matrix (better conditioning)
   TURBO    =      0    0=normal 1=particle mesh
   IRESTART =      0    0=no restart 2=restart with 2 vectors
   NREBOOT  =      0    no. of reboots
   NMIN     =      0    reboot dimension
   EREF     =   0.00    reference energy to select bands
   IMIX   =      4    mixing-type and parameters
     AMIX     =   0.40;   BMIX     =  1.00
     AMIX_MAG =   1.60;   BMIX_MAG =  1.00
     AMIN     =   0.10
     WC   =   100.;   INIMIX=   1;  MIXPRE=   1;  MAXMIX= -45

 Intra band minimization:
   WEIMIN = 0.0010     energy-eigenvalue tresh-hold
   EBREAK =  0.39E-09  absolut break condition
   DEPER  =   0.30     relativ break condition  

   TIME   =   0.40     timestep for ELM

  volume/ion in A,a.u.               =      13.04        88.01
  Fermi-wavevector in a.u.,A,eV,Ry     =   1.752548  3.311835 41.789251  3.071423
  Thomas-Fermi vector in A             =   2.822857
 
 Write flags
   LWAVE  =      T    write WAVECAR
   LCHARG =      T    write CHGCAR
   LVTOT  =      F    write LOCPOT, total local potential
   LVHAR  =      F    write LOCPOT, Hartree potential only
   LELF   =      F    write electronic localiz. function (ELF)
   LORBIT =      0    0 simple, 1 ext, 2 COOP (PROOUT)


 Dipole corrections
   LMONO  =      F    monopole corrections only (constant potential shift)
   LDIPOL =      F    correct potential (dipole corrections)
   IDIPOL =      0    1-x, 2-y, 3-z, 4-all directions 
   EPSILON=  1.0000000 bulk dielectric constant

 Exchange correlation treatment:
   GGA     =    --    GGA type
   LEXCH   =     8    internal setting for exchange type
   VOSKOWN=      0    Vosko Wilk Nusair interpolation
   LHFCALC =     F    Hartree Fock is set to
   LHFONE  =     F    Hartree Fock one center treatment
   AEXX    =    0.0000 exact exchange contribution

 Linear response parameters
   LEPSILON=     F    determine dielectric tensor
   LRPA    =     F    only Hartree local field effects (RPA)
   LNABLA  =     F    use nabla operator in PAW spheres
   LVEL    =     F    velocity operator in full k-point grid
   LINTERFAST=   F  fast interpolation
   KINTER  =     0    interpolate to denser k-point grid
   CSHIFT  =0.1000    complex shift for real part using Kramers Kronig
   OMEGAMAX=  -1.0    maximum frequency
   DEG_THRESHOLD= 0.2000000E-02 threshold for treating states as degnerate
   RTIME   =    0.100 relaxation time in fs

 Orbital magnetization related:
   ORBITALMAG=     F  switch on orbital magnetization
   LCHIMAG   =     F  perturbation theory with respect to B field
   DQ        =  0.001000  dq finite difference perturbation B field



--------------------------------------------------------------------------------------------------------


 finite differences with symmetry
 charge density and potential will be updated during run
 spin polarized calculation
 Variant of blocked Davidson
 Davidson routine will perform the subspace rotation
 perform sub-space diagonalisation
    after iterative eigenvector-optimisation
 modified Broyden-mixing scheme, WC =      100.0
 initial mixing is a Kerker type mixing with AMIX =  0.4000 and BMIX =      1.0000
 Hartree-type preconditioning will be used
 using additional bands          136
 real space projection scheme for non local part
 use partial core corrections
 calculate Harris-corrections to forces 
   (improved forces if not selfconsistent)
 use gradient corrections 
 use of overlap-Matrix (Vanderbilt PP)
 Methfessel and Paxton  Order N= 1 SIGMA  =   0.20


--------------------------------------------------------------------------------------------------------


  energy-cutoff  :      459.93
  volume of cell :      834.67
      direct lattice vectors                 reciprocal lattice vectors
     0.000000000  7.473000000  7.473000000    -0.066907534  0.066907534  0.066907534
     7.473000000  0.000000000  7.473000000     0.066907534 -0.066907534  0.066907534
     7.473000000  7.473000000  0.000000000     0.066907534  0.066907534 -0.066907534

  length of vectors
    10.568417952 10.568417952 10.568417952     0.115887248  0.115887248  0.115887248


 
 k-points in units of 2pi/SCALE and weight: Zr 15x15x15                             
   0.00000000  0.00000000  0.00000000       0.037
  -0.02230251  0.02230251  0.02230251       0.296
   0.00000000  0.00000000  0.04460502       0.222
   0.04460502 -0.04460502  0.00000000       0.444
 
 k-points in reciprocal lattice and weights: Zr 15x15x15                             
   0.00000000  0.00000000  0.00000000       0.037
   0.33333333  0.00000000  0.00000000       0.296
   0.33333333  0.33333333  0.00000000       0.222
  -0.33333333  0.33333333  0.00000000       0.444
 
 position of ions in fractional coordinates (direct lattice) 
   0.00000000  0.00000000  0.00000000
   0.00000000  0.00000000  0.25000000
   0.00000000  0.00000000  0.50000000
   0.00000000  0.00000000  0.75000000
   0.00000000  0.25000000  0.00000000
   0.00000000  0.25000000  0.25000000
   0.00000000  0.25000000  0.50000000
   0.00000000  0.25000000  0.75000000
   0.00000000  0.50000000  0.00000000
   0.00000000  0.50000000  0.25000000
   0.00000000  0.50000000  0.50000000
   0.00000000  0.50000000  0.75000000
   0.00000000  0.75000000  0.00000000
   0.00000000  0.75000000  0.25000000
   0.00000000  0.75000000  0.50000000
   0.00000000  0.75000000  0.75000000
   0.25000000  0.00000000  0.00000000
   0.25000000  0.00000000  0.25000000
   0.25000000  0.00000000  0.50000000
   0.25000000  0.00000000  0.75000000
   0.25000000  0.25000000  0.00000000
   0.25000000  0.25000000  0.25000000
   0.25000000  0.25000000  0.50000000
   0.25000000  0.25000000  0.75000000
   0.25000000  0.50000000  0.00000000
   0.25000000  0.50000000  0.25000000
   0.25000000  0.50000000  0.50000000
   0.25000000  0.50000000  0.75000000
   0.25000000  0.75000000  0.00000000
   0.25000000  0.75000000  0.25000000
   0.25000000  0.75000000  0.50000000
   0.25000000  0.75000000  0.75000000
   0.50000000  0.00000000  0.00000000
   0.50000000  0.00000000  0.25000000
   0.50000000  0.00000000  0.50000000
   0.50000000  0.00000000  0.75000000
   0.50000000  0.25000000  0.00000000
   0.50000000  0.25000000  0.25000000
   0.50000000  0.25000000  0.50000000
   0.50000000  0.25000000  0.75000000
   0.50000000  0.50000000  0.00000000
   0.50000000  0.50000000  0.25000000
   0.50000000  0.50000000  0.50000000
   0.50000000  0.50000000  0.75000000
   0.50000000  0.75000000  0.00000000
   0.50000000  0.75000000  0.25000000
   0.50000000  0.75000000  0.50000000
   0.50000000  0.75000000  0.75000000
   0.75000000  0.00000000  0.00000000
   0.75000000  0.00000000  0.25000000
   0.75000000  0.00000000  0.50000000
   0.75000000  0.00000000  0.75000000
   0.75000000  0.25000000  0.00000000
   0.75000000  0.25000000  0.25000000
   0.75000000  0.25000000  0.50000000
   0.75000000  0.25000000  0.75000000
   0.75000000  0.50000000  0.00000000
   0.75000000  0.50000000  0.25000000
   0.75000000  0.50000000  0.50000000
   0.75000000  0.50000000  0.75000000
   0.75000000  0.75000000  0.00000000
   0.75000000  0.75000000  0.25000000
   0.75000000  0.75000000  0.50000000
   0.75000000  0.75000000  0.75000000
 
 position of ions in cartesian coordinates  (Angst):
   0.00000000  0.00000000  0.00000000
   1.86825000  1.86825000  0.00000000
   3.73650000  3.73650000  0.00000000
   5.60475000  5.60475000  0.00000000
   1.86825000  0.00000000  1.86825000
   3.73650000  1.86825000  1.86825000
   5.60475000  3.73650000  1.86825000
   7.47300000  5.60475000  1.86825000
   3.73650000  0.00000000  3.73650000
   5.60475000  1.86825000  3.73650000
   7.47300000  3.73650000  3.73650000
   9.34125000  5.60475000  3.73650000
   5.60475000  0.00000000  5.60475000
   7.47300000  1.86825000  5.60475000
   9.34125000  3.73650000  5.60475000
  11.20950000  5.60475000  5.60475000
   0.00000000  1.86825000  1.86825000
   1.86825000  3.73650000  1.86825000
   3.73650000  5.60475000  1.86825000
   5.60475000  7.47300000  1.86825000
   1.86825000  1.86825000  3.73650000
   3.73650000  3.73650000  3.73650000
   5.60475000  5.60475000  3.73650000
   7.47300000  7.47300000  3.73650000
   3.73650000  1.86825000  5.60475000
   5.60475000  3.73650000  5.60475000
   7.47300000  5.60475000  5.60475000
   9.34125000  7.47300000  5.60475000
   5.60475000  1.86825000  7.47300000
   7.47300000  3.73650000  7.47300000
   9.34125000  5.60475000  7.47300000
  11.20950000  7.47300000  7.47300000
   0.00000000  3.73650000  3.73650000
   1.86825000  5.60475000  3.73650000
   3.73650000  7.47300000  3.73650000
   5.60475000  9.34125000  3.73650000
   1.86825000  3.73650000  5.60475000
   3.73650000  5.60475000  5.60475000
   5.60475000  7.47300000  5.60475000
   7.47300000  9.34125000  5.60475000
   3.73650000  3.73650000  7.47300000
   5.60475000  5.60475000  7.47300000
   7.47300000  7.47300000  7.47300000
   9.34125000  9.34125000  7.47300000
   5.60475000  3.73650000  9.34125000
   7.47300000  5.60475000  9.34125000
   9.34125000  7.47300000  9.34125000
  11.20950000  9.34125000  9.34125000
   0.00000000  5.60475000  5.60475000
   1.86825000  7.47300000  5.60475000
   3.73650000  9.34125000  5.60475000
   5.60475000 11.20950000  5.60475000
   1.86825000  5.60475000  7.47300000
   3.73650000  7.47300000  7.47300000
   5.60475000  9.34125000  7.47300000
   7.47300000 11.20950000  7.47300000
   3.73650000  5.60475000  9.34125000
   5.60475000  7.47300000  9.34125000
   7.47300000  9.34125000  9.34125000
   9.34125000 11.20950000  9.34125000
   5.60475000  5.60475000 11.20950000
   7.47300000  7.47300000 11.20950000
   9.34125000  9.34125000 11.20950000
  11.20950000 11.20950000 11.20950000
 


--------------------------------------------------------------------------------------------------------


 k-point  1 :   0.0000 0.0000 0.0000  plane waves:   18763
 k-point  2 :   0.3333 0.0000 0.0000  plane waves:   18711
 k-point  3 :   0.3333 0.3333 0.0000  plane waves:   18730
 k-point  4 :  -0.3333 0.3333 0.0000  plane waves:   18642

 maximum and minimum number of plane-waves per node :     18763    18642

 maximum number of plane-waves:     18763
 maximum index in each direction: 
   IXMAX=   18   IYMAX=   18   IZMAX=   18
   IXMIN=  -18   IYMIN=  -18   IZMIN=  -18

 NGX is ok and might be reduce to  74
 NGY is ok and might be reduce to  74
 NGZ is ok and might be reduce to  74

 serial   3D FFT for wavefunctions
 parallel 3D FFT for charge:
    minimum data exchange during FFTs selected (reduces bandwidth)


 total amount of memory used by VASP on root node   590736. kBytes
========================================================================

   base      :      30000. kBytes
   nonlr-proj:      47454. kBytes
   fftplans  :      20120. kBytes
   grid      :      78194. kBytes
   one-center:       1990. kBytes
   wavefun   :     412978. kBytes
 
     INWAV:  cpu time    0.0010: real time    0.0000
 Broyden mixing: mesh for mixing (old mesh)
   NGX = 37   NGY = 37   NGZ = 37
  (NGX  =126   NGY  =126   NGZ  =126)
  gives a total of  50653 points

 initial charge density was supplied:
 charge density of overlapping atoms calculated
 number of electron    1024.0000000 magnetization      64.0000000
 keeping initial charge density in first step


--------------------------------------------------------------------------------------------------------


 Maximum index for non-local projection operator         4213
 Maximum index for augmentation-charges         1806 (set IRDMAX)


--------------------------------------------------------------------------------------------------------


 First call to EWALD:  gamma=   0.188
 Maximum number of real-space cells 3x 3x 3
 Maximum number of reciprocal cells 3x 3x 3

 FEWALD executed in parallel
    FEWALD:  cpu time    0.0070: real time    0.0068


----------------------------------------- Iteration    1(   1)  ---------------------------------------


    POTLOK:  cpu time    0.6249: real time    0.6246
    SETDIJ:  cpu time    0.0920: real time    0.0918
     EDDAV:  cpu time  205.1138: real time  204.9478
       DOS:  cpu time    0.0030: real time    0.0035
    --------------------------------------------
      LOOP:  cpu time  205.8347: real time  205.6706

 eigenvalue-minimisations  : 11744
 total energy-change (2. order) : 0.1523355E+05  (-0.6166925E+05)
 number of electron    1024.0000000 magnetization      64.0000000
 augmentation part     1024.0000000 magnetization      64.0000000

 Free energy of the ion-electron system (eV)
  ---------------------------------------------------
  alpha Z        PSCENC =      8266.97428417
  Ewald energy   TEWEN  =   -144746.26977675
  -Hartree energ DENC   =    -67168.00643193
  -exchange      EXHF   =         0.00000000
  -V(xc)+E(xc)   XCENC  =      5681.51835869
  PAW double counting   =    172361.15642774  -181272.45834873
  entropy T*S    EENTRO =        -0.00201364
  eigenvalues    EBANDS =     -1906.01938347
  atomic energy  EATOM  =    224016.65216645
  Solvation  Ediel_sol  =         0.00000000
  ---------------------------------------------------
  free energy    TOTEN  =     15233.54528255 eV

  energy without entropy =    15233.54729619  energy(sigma->0) =    15233.54595377


--------------------------------------------------------------------------------------------------------




----------------------------------------- Iteration    1(   2)  ---------------------------------------


     EDDAV:  cpu time  184.1470: real time  183.9972
       DOS:  cpu time    0.0030: real time    0.0041
    --------------------------------------------
      LOOP:  cpu time  184.1510: real time  184.0019

 eigenvalue-minimisations  : 10368
 total energy-change (2. order) :-0.1427561E+05  (-0.1389440E+05)
 number of electron    1024.0000000 magnetization      64.0000000
 augmentation part     1024.0000000 magnetization      64.0000000

 Free energy of the ion-electron system (eV)
  ---------------------------------------------------
  alpha Z        PSCENC =      8266.97428417
  Ewald energy   TEWEN  =   -144746.26977675
  -Hartree energ DENC   =    -67168.00643193
  -exchange      EXHF   =         0.00000000
  -V(xc)+E(xc)   XCENC  =      5681.51835869
  PAW double counting   =    172361.15642774  -181272.45834873
  entropy T*S    EENTRO =        -0.02710637
  eigenvalues    EBANDS =    -16181.60309246
  atomic energy  EATOM  =    224016.65216645
  Solvation  Ediel_sol  =         0.00000000
  ---------------------------------------------------
  free energy    TOTEN  =       957.93648083 eV

  energy without entropy =      957.96358720  energy(sigma->0) =      957.94551629


--------------------------------------------------------------------------------------------------------




----------------------------------------- Iteration    1(   3)  ---------------------------------------


     EDDAV:  cpu time  186.7676: real time  186.6171
       DOS:  cpu time    0.0040: real time    0.0041
    --------------------------------------------
      LOOP:  cpu time  186.7736: real time  186.6228

 eigenvalue-minimisations  : 10576
 total energy-change (2. order) :-0.1299991E+04  (-0.1083348E+04)
 number of electron    1024.0000000 magnetization      64.0000000
 augmentation part     1024.0000000 magnetization      64.0000000

 Free energy of the ion-electron system (eV)
  ---------------------------------------------------
  alpha Z        PSCENC =      8266.97428417
  Ewald energy   TEWEN  =   -144746.26977675
  -Hartree energ DENC   =    -67168.00643193
  -exchange      EXHF   =         0.00000000
  -V(xc)+E(xc)   XCENC  =      5681.51835869
  PAW double counting   =    172361.15642774  -181272.45834873
  entropy T*S    EENTRO =         0.16690236
  eigenvalues    EBANDS =    -17481.78840338
  atomic energy  EATOM  =    224016.65216645
  Solvation  Ediel_sol  =         0.00000000
  ---------------------------------------------------
  free energy    TOTEN  =      -342.05482136 eV

  energy without entropy =     -342.22172372  energy(sigma->0) =     -342.11045548


--------------------------------------------------------------------------------------------------------




----------------------------------------- Iteration    1(   4)  ---------------------------------------


     EDDAV:  cpu time  210.0021: real time  209.8377
       DOS:  cpu time    0.0050: real time    0.0045
    --------------------------------------------
      LOOP:  cpu time  210.0081: real time  209.8427

 eigenvalue-minimisations  : 11128
 total energy-change (2. order) :-0.7637988E+02  (-0.7376019E+02)
 number of electron    1024.0000000 magnetization      64.0000000
 augmentation part     1024.0000000 magnetization      64.0000000

 Free energy of the ion-electron system (eV)
  ---------------------------------------------------
  alpha Z        PSCENC =      8266.97428417
  Ewald energy   TEWEN  =   -144746.26977675
  -Hartree energ DENC   =    -67168.00643193
  -exchange      EXHF   =         0.00000000
  -V(xc)+E(xc)   XCENC  =      5681.51835869
  PAW double counting   =    172361.15642774  -181272.45834873
  entropy T*S    EENTRO =         0.16667515
  eigenvalues    EBANDS =    -17558.16805958
  atomic energy  EATOM  =    224016.65216645
  Solvation  Ediel_sol  =         0.00000000
  ---------------------------------------------------
  free energy    TOTEN  =      -418.43470477 eV

  energy without entropy =     -418.60137992  energy(sigma->0) =     -418.49026315


--------------------------------------------------------------------------------------------------------




----------------------------------------- Iteration    1(   5)  ---------------------------------------


     EDDAV:  cpu time  218.7897: real time  218.6151
       DOS:  cpu time    0.0040: real time    0.0043
    CHARGE:  cpu time   14.9817: real time   14.9704
    MIXING:  cpu time    0.0130: real time    0.0122
    --------------------------------------------
      LOOP:  cpu time  233.7905: real time  233.6028

 eigenvalue-minimisations  : 11032
 total energy-change (2. order) :-0.1350793E+01  (-0.1348717E+01)
 number of electron    1024.0000238 magnetization      59.1738476
 augmentation part      572.8865729 magnetization      47.1215921

 Broyden mixing:
  rms(total) = 0.67535E+01    rms(broyden)= 0.67503E+01
  rms(prec ) = 0.90839E+01
  weight for this iteration     100.00

 Free energy of the ion-electron system (eV)
  ---------------------------------------------------
  alpha Z        PSCENC =      8266.97428417
  Ewald energy   TEWEN  =   -144746.26977675
  -Hartree energ DENC   =    -67168.00643193
  -exchange      EXHF   =         0.00000000
  -V(xc)+E(xc)   XCENC  =      5681.51835869
  PAW double counting   =    172361.15642774  -181272.45834873
  entropy T*S    EENTRO =         0.16723087
  eigenvalues    EBANDS =    -17559.51940868
  atomic energy  EATOM  =    224016.65216645
  Solvation  Ediel_sol  =         0.00000000
  ---------------------------------------------------
  free energy    TOTEN  =      -419.78549815 eV

  energy without entropy =     -419.95272902  energy(sigma->0) =     -419.84124177


--------------------------------------------------------------------------------------------------------




----------------------------------------- Iteration    1(   6)  ---------------------------------------


    POTLOK:  cpu time    0.7199: real time    0.7187
    SETDIJ:  cpu time    0.0980: real time    0.0976
     EDDAV:  cpu time  216.5671: real time  216.3934
       DOS:  cpu time    0.0040: real time    0.0043
    CHARGE:  cpu time   14.5388: real time   14.5269
    MIXING:  cpu time    0.0140: real time    0.0141
    --------------------------------------------
      LOOP:  cpu time  231.9417: real time  231.7558

 eigenvalue-minimisations  : 10872
 total energy-change (2. order) : 0.1806033E+02  (-0.6907742E+02)
 number of electron    1024.0000267 magnetization      53.1222092
 augmentation part      637.0538345 magnetization      47.7677263

 Broyden mixing:
  rms(total) = 0.61435E+01    rms(broyden)= 0.61428E+01
  rms(prec ) = 0.76808E+01
  weight for this iteration     100.00

 eigenvalues of (default mixing * dielectric matrix)
  average eigenvalue GAMMA=   0.5009
  0.5009

 Free energy of the ion-electron system (eV)
  ---------------------------------------------------
  alpha Z        PSCENC =      8266.97428417
  Ewald energy   TEWEN  =   -144746.26977675
  -Hartree energ DENC   =    -63774.85873905
  -exchange      EXHF   =         0.00000000
  -V(xc)+E(xc)   XCENC  =      5554.39597801
  PAW double counting   =    166846.48466000  -175426.53032720
  entropy T*S    EENTRO =        -0.52738951
  eigenvalues    EBANDS =    -21138.04602855
  atomic energy  EATOM  =    224016.65216645
  Solvation  Ediel_sol  =         0.00000000
  ---------------------------------------------------
  free energy    TOTEN  =      -401.72517243 eV

  energy without entropy =     -401.19778292  energy(sigma->0) =     -401.54937593


--------------------------------------------------------------------------------------------------------




----------------------------------------- Iteration    1(   7)  ---------------------------------------


    POTLOK:  cpu time    0.7119: real time    0.7108
    SETDIJ:  cpu time    0.0990: real time    0.0988
     EDDAV:  cpu time  216.6611: real time  216.5196
       DOS:  cpu time    0.0040: real time    0.0042
    CHARGE:  cpu time   14.7528: real time   14.7416
    MIXING:  cpu time    0.0140: real time    0.0140
    --------------------------------------------
      LOOP:  cpu time  232.2437: real time  232.0896

 eigenvalue-minimisations  : 10800
 total energy-change (2. order) : 0.4265681E+02  (-0.1630199E+02)
 number of electron    1024.0000254 magnetization      48.9824445
 augmentation part      607.2254112 magnetization      40.0365620

 Broyden mixing:
  rms(total) = 0.61570E+00    rms(broyden)= 0.61471E+00
  rms(prec ) = 0.70894E+00
  weight for this iteration     100.00

 eigenvalues of (default mixing * dielectric matrix)
  average eigenvalue GAMMA=   0.6839
  0.8250  0.5428

 Free energy of the ion-electron system (eV)
  ---------------------------------------------------
  alpha Z        PSCENC =      8266.97428417
  Ewald energy   TEWEN  =   -144746.26977675
  -Hartree energ DENC   =    -65157.49221254
  -exchange      EXHF   =         0.00000000
  -V(xc)+E(xc)   XCENC  =      5605.59005192
  PAW double counting   =    169552.46733184  -178424.49875571
  entropy T*S    EENTRO =        -0.10631616
  eigenvalues    EBANDS =    -19472.38513096
  atomic energy  EATOM  =    224016.65216645
  Solvation  Ediel_sol  =         0.00000000
  ---------------------------------------------------
  free energy    TOTEN  =      -359.06835773 eV

  energy without entropy =     -358.96204157  energy(sigma->0) =     -359.03291901


--------------------------------------------------------------------------------------------------------




----------------------------------------- Iteration    1(   8)  ---------------------------------------


    POTLOK:  cpu time    0.7069: real time    0.7071
    SETDIJ:  cpu time    0.0970: real time    0.0966
     EDDAV:  cpu time  216.8450: real time  216.7495
       DOS:  cpu time    0.0040: real time    0.0044
    CHARGE:  cpu time   14.6708: real time   14.6630
    MIXING:  cpu time    0.0150: real time    0.0150
    --------------------------------------------
      LOOP:  cpu time  232.3397: real time  232.2363

 eigenvalue-minimisations  : 10896
 total energy-change (2. order) :-0.2258203E+00  (-0.1822595E+00)
 number of electron    1024.0000253 magnetization      45.5042385
 augmentation part      606.4263516 magnetization      38.0124539

 Broyden mixing:
  rms(total) = 0.33179E+00    rms(broyden)= 0.33168E+00
  rms(prec ) = 0.43429E+00
  weight for this iteration     100.00

 eigenvalues of (default mixing * dielectric matrix)
  average eigenvalue GAMMA=   1.0995
  0.5487  0.8473  1.9026

 Free energy of the ion-electron system (eV)
  ---------------------------------------------------
  alpha Z        PSCENC =      8266.97428417
  Ewald energy   TEWEN  =   -144746.26977675
  -Hartree energ DENC   =    -65066.34649832
  -exchange      EXHF   =         0.00000000
  -V(xc)+E(xc)   XCENC  =      5603.44870662
  PAW double counting   =    169831.19370809  -178784.94786416
  entropy T*S    EENTRO =        -0.08754617
  eigenvalues    EBANDS =    -19479.91135794
  atomic energy  EATOM  =    224016.65216645
  Solvation  Ediel_sol  =         0.00000000
  ---------------------------------------------------
  free energy    TOTEN  =      -359.29417801 eV

  energy without entropy =     -359.20663184  energy(sigma->0) =     -359.26499595


--------------------------------------------------------------------------------------------------------




----------------------------------------- Iteration    1(   9)  ---------------------------------------


    POTLOK:  cpu time    0.7099: real time    0.7100
    SETDIJ:  cpu time    0.0960: real time    0.0959
     EDDAV:  cpu time  221.3503: real time  221.2655
       DOS:  cpu time    0.0050: real time    0.0043
    CHARGE:  cpu time   14.6878: real time   14.6772
    MIXING:  cpu time    0.0160: real time    0.0161
    --------------------------------------------
      LOOP:  cpu time  236.8660: real time  236.7697

 eigenvalue-minimisations  : 11192
 total energy-change (2. order) : 0.1136106E+00  (-0.3483692E-01)
 number of electron    1024.0000254 magnetization      45.5524078
 augmentation part      607.3753687 magnetization      39.2729641

 Broyden mixing:
  rms(total) = 0.83348E-01    rms(broyden)= 0.83317E-01
  rms(prec ) = 0.86524E-01
  weight for this iteration     100.00

 eigenvalues of (default mixing * dielectric matrix)
  average eigenvalue GAMMA=   1.0798
  2.2537  0.8834  0.5564  0.6258

 Free energy of the ion-electron system (eV)
  ---------------------------------------------------
  alpha Z        PSCENC =      8266.97428417
  Ewald energy   TEWEN  =   -144746.26977675
  -Hartree energ DENC   =    -64901.97707618
  -exchange      EXHF   =         0.00000000
  -V(xc)+E(xc)   XCENC  =      5598.56769578
  PAW double counting   =    170053.70828804  -179080.90499356
  entropy T*S    EENTRO =        -0.09464179
  eigenvalues    EBANDS =    -19565.83651362
  atomic energy  EATOM  =    224016.65216645
  Solvation  Ediel_sol  =         0.00000000
  ---------------------------------------------------
  free energy    TOTEN  =      -359.18056745 eV

  energy without entropy =     -359.08592566  energy(sigma->0) =     -359.14902019


--------------------------------------------------------------------------------------------------------




----------------------------------------- Iteration    1(  10)  ---------------------------------------


    POTLOK:  cpu time    0.7089: real time    0.7086
    SETDIJ:  cpu time    0.0960: real time    0.0961
     EDDAV:  cpu time  230.0790: real time  230.0698
       DOS:  cpu time    0.0040: real time    0.0043
    CHARGE:  cpu time   14.7758: real time   14.7808
    MIXING:  cpu time    0.0170: real time    0.0179
    --------------------------------------------
      LOOP:  cpu time  245.6837: real time  245.6784

 eigenvalue-minimisations  : 11672
 total energy-change (2. order) :-0.6664380E-02  (-0.1755886E-02)
 number of electron    1024.0000254 magnetization      45.9445185
 augmentation part      607.3337501 magnetization      39.5993914

 Broyden mixing:
  rms(total) = 0.36213E-01    rms(broyden)= 0.36196E-01
  rms(prec ) = 0.38881E-01
  weight for this iteration     100.00

 eigenvalues of (default mixing * dielectric matrix)
  average eigenvalue GAMMA=   1.1447
  2.3091  1.2659  0.9750  0.5521  0.6213

 Free energy of the ion-electron system (eV)
  ---------------------------------------------------
  alpha Z        PSCENC =      8266.97428417
  Ewald energy   TEWEN  =   -144746.26977675
  -Hartree energ DENC   =    -64896.12002077
  -exchange      EXHF   =         0.00000000
  -V(xc)+E(xc)   XCENC  =      5598.45020312
  PAW double counting   =    170123.49129022  -179156.47477326
  entropy T*S    EENTRO =        -0.09364263
  eigenvalues    EBANDS =    -19565.79696238
  atomic energy  EATOM  =    224016.65216645
  Solvation  Ediel_sol  =         0.00000000
  ---------------------------------------------------
  free energy    TOTEN  =      -359.18723183 eV

  energy without entropy =     -359.09358920  energy(sigma->0) =     -359.15601762


--------------------------------------------------------------------------------------------------------




----------------------------------------- Iteration    1(  11)  ---------------------------------------


    POTLOK:  cpu time    0.7149: real time    0.7142
    SETDIJ:  cpu time    0.0970: real time    0.0968
     EDDAV:  cpu time  219.3707: real time  219.8945
       DOS:  cpu time    0.0040: real time    0.0043
    CHARGE:  cpu time   14.6598: real time   14.6552
    MIXING:  cpu time    0.0180: real time    0.0173
    --------------------------------------------
      LOOP:  cpu time  234.8643: real time  235.3830

 eigenvalue-minimisations  : 11008
 total energy-change (2. order) :-0.3706489E-02  (-0.8917082E-03)
 number of electron    1024.0000254 magnetization      46.0329338
 augmentation part      607.1925431 magnetization      39.5227186

 Broyden mixing:
  rms(total) = 0.13948E-01    rms(broyden)= 0.13929E-01
  rms(prec ) = 0.17341E-01
  weight for this iteration     100.00

 eigenvalues of (default mixing * dielectric matrix)
  average eigenvalue GAMMA=   1.1822
  2.4063  1.8091  0.9410  0.5491  0.7516  0.6363

 Free energy of the ion-electron system (eV)
  ---------------------------------------------------
  alpha Z        PSCENC =      8266.97428417
  Ewald energy   TEWEN  =   -144746.26977675
  -Hartree energ DENC   =    -64902.10358755
  -exchange      EXHF   =         0.00000000
  -V(xc)+E(xc)   XCENC  =      5598.64637710
  PAW double counting   =    170215.85052816  -179249.89298721
  entropy T*S    EENTRO =        -0.09253352
  eigenvalues    EBANDS =    -19558.95540918
  atomic energy  EATOM  =    224016.65216645
  Solvation  Ediel_sol  =         0.00000000
  ---------------------------------------------------
  free energy    TOTEN  =      -359.19093832 eV

  energy without entropy =     -359.09840480  energy(sigma->0) =     -359.16009381


--------------------------------------------------------------------------------------------------------




----------------------------------------- Iteration    1(  12)  ---------------------------------------


    POTLOK:  cpu time    0.7149: real time    0.7146
    SETDIJ:  cpu time    0.0960: real time    0.0958
     EDDAV:  cpu time  222.6592: real time  222.5217
       DOS:  cpu time    0.0040: real time    0.0041
    CHARGE:  cpu time   14.7458: real time   14.7380
    MIXING:  cpu time    0.0210: real time    0.0199
    --------------------------------------------
      LOOP:  cpu time  238.2408: real time  238.0948

 eigenvalue-minimisations  : 11312
 total energy-change (2. order) :-0.7210634E-04  (-0.9362909E-04)
 number of electron    1024.0000254 magnetization      46.0357638
 augmentation part      607.2498206 magnetization      39.4991002

 Broyden mixing:
  rms(total) = 0.24717E-02    rms(broyden)= 0.24613E-02
  rms(prec ) = 0.26325E-02
  weight for this iteration     100.00

 eigenvalues of (default mixing * dielectric matrix)
  average eigenvalue GAMMA=   1.1808
  2.4575  1.9514  0.9654  0.9654  0.5498  0.7484  0.6279

 Free energy of the ion-electron system (eV)
  ---------------------------------------------------
  alpha Z        PSCENC =      8266.97428417
  Ewald energy   TEWEN  =   -144746.26977675
  -Hartree energ DENC   =    -64899.20521111
  -exchange      EXHF   =         0.00000000
  -V(xc)+E(xc)   XCENC  =      5598.53404675
  PAW double counting   =    170241.05539154  -179274.59356219
  entropy T*S    EENTRO =        -0.09395397
  eigenvalues    EBANDS =    -19562.24439532
  atomic energy  EATOM  =    224016.65216645
  Solvation  Ediel_sol  =         0.00000000
  ---------------------------------------------------
  free energy    TOTEN  =      -359.19101042 eV

  energy without entropy =     -359.09705645  energy(sigma->0) =     -359.15969243


--------------------------------------------------------------------------------------------------------




----------------------------------------- Iteration    1(  13)  ---------------------------------------


    POTLOK:  cpu time    0.7099: real time    0.7101
    SETDIJ:  cpu time    0.0960: real time    0.0966
     EDDAV:  cpu time  226.1576: real time  226.5997
       DOS:  cpu time    0.0040: real time    0.0043
    CHARGE:  cpu time   14.9037: real time   14.8984
    MIXING:  cpu time    0.0230: real time    0.0220
    --------------------------------------------
      LOOP:  cpu time  241.8952: real time  242.3319

 eigenvalue-minimisations  : 11496
 total energy-change (2. order) :-0.6087066E-06  (-0.6236125E-05)
 number of electron    1024.0000254 magnetization      46.0300701
 augmentation part      607.2645482 magnetization      39.4957896

 Broyden mixing:
  rms(total) = 0.20109E-02    rms(broyden)= 0.20104E-02
  rms(prec ) = 0.25996E-02
  weight for this iteration     100.00

 eigenvalues of (default mixing * dielectric matrix)
  average eigenvalue GAMMA=   1.2223
  2.4348  2.0271  1.6260  0.9719  0.5503  0.6234  0.7726  0.7726

 Free energy of the ion-electron system (eV)
  ---------------------------------------------------
  alpha Z        PSCENC =      8266.97428417
  Ewald energy   TEWEN  =   -144746.26977675
  -Hartree energ DENC   =    -64898.90057091
  -exchange      EXHF   =         0.00000000
  -V(xc)+E(xc)   XCENC  =      5598.52473946
  PAW double counting   =    170248.42494885  -179281.47169609
  entropy T*S    EENTRO =        -0.09414267
  eigenvalues    EBANDS =    -19563.03096355
  atomic energy  EATOM  =    224016.65216645
  Solvation  Ediel_sol  =         0.00000000
  ---------------------------------------------------
  free energy    TOTEN  =      -359.19101103 eV

  energy without entropy =     -359.09686836  energy(sigma->0) =     -359.15963014


--------------------------------------------------------------------------------------------------------




----------------------------------------- Iteration    1(  14)  ---------------------------------------


    POTLOK:  cpu time    0.7189: real time    0.7181
    SETDIJ:  cpu time    0.0980: real time    0.0975
     EDDAV:  cpu time  174.6644: real time  174.5488
       DOS:  cpu time    0.0050: real time    0.0044
    CHARGE:  cpu time   14.6268: real time   14.6381
    MIXING:  cpu time    0.0200: real time    0.0205
    --------------------------------------------
      LOOP:  cpu time  190.1331: real time  190.0281

 eigenvalue-minimisations  :  8152
 total energy-change (2. order) : 0.1808457E-04  (-0.6205117E-06)
 number of electron    1024.0000254 magnetization      46.0285841
 augmentation part      607.2608599 magnetization      39.4969215

 Broyden mixing:
  rms(total) = 0.10551E-02    rms(broyden)= 0.10551E-02
  rms(prec ) = 0.12965E-02
  weight for this iteration     100.00

 eigenvalues of (default mixing * dielectric matrix)
  average eigenvalue GAMMA=   1.2553
  2.4863  2.4863  1.8388  0.9402  0.9402  0.7944  0.5501  0.6257  0.6360

 Free energy of the ion-electron system (eV)
  ---------------------------------------------------
  alpha Z        PSCENC =      8266.97428417
  Ewald energy   TEWEN  =   -144746.26977675
  -Hartree energ DENC   =    -64899.45917425
  -exchange      EXHF   =         0.00000000
  -V(xc)+E(xc)   XCENC  =      5598.54668974
  PAW double counting   =    170254.66764084  -179287.40202593
  entropy T*S    EENTRO =        -0.09406186
  eigenvalues    EBANDS =    -19562.80673537
  atomic energy  EATOM  =    224016.65216645
  Solvation  Ediel_sol  =         0.00000000
  ---------------------------------------------------
  free energy    TOTEN  =      -359.19099295 eV

  energy without entropy =     -359.09693109  energy(sigma->0) =     -359.15963899


--------------------------------------------------------------------------------------------------------




----------------------------------------- Iteration    1(  15)  ---------------------------------------


    POTLOK:  cpu time    0.6649: real time    0.6638
    SETDIJ:  cpu time    0.0950: real time    0.0958
     EDDAV:  cpu time  164.0011: real time  163.9046
       DOS:  cpu time    0.0040: real time    0.0042
    CHARGE:  cpu time   14.6748: real time   14.6655
    MIXING:  cpu time    0.0240: real time    0.0244
    --------------------------------------------
      LOOP:  cpu time  179.4657: real time  179.3590

 eigenvalue-minimisations  :  7480
 total energy-change (2. order) : 0.7834635E-05  (-0.3256292E-06)
 number of electron    1024.0000254 magnetization      46.0277746
 augmentation part      607.2566210 magnetization      39.4958156

 Broyden mixing:
  rms(total) = 0.11466E-03    rms(broyden)= 0.11414E-03
  rms(prec ) = 0.12582E-03
  weight for this iteration     100.00

 eigenvalues of (default mixing * dielectric matrix)
  average eigenvalue GAMMA=   1.2352
  2.6288  2.4310  1.8650  1.0116  1.0116  0.5501  0.7872  0.7872  0.6273  0.6525

 Free energy of the ion-electron system (eV)
  ---------------------------------------------------
  alpha Z        PSCENC =      8266.97428417
  Ewald energy   TEWEN  =   -144746.26977675
  -Hartree energ DENC   =    -64899.79802827
  -exchange      EXHF   =         0.00000000
  -V(xc)+E(xc)   XCENC  =      5598.55932420
  PAW double counting   =    170257.51105995  -179290.15212215
  entropy T*S    EENTRO =        -0.09399335
  eigenvalues    EBANDS =    -19562.57389938
  atomic energy  EATOM  =    224016.65216645
  Solvation  Ediel_sol  =         0.00000000
  ---------------------------------------------------
  free energy    TOTEN  =      -359.19098511 eV

  energy without entropy =     -359.09699176  energy(sigma->0) =     -359.15965400


--------------------------------------------------------------------------------------------------------




----------------------------------------- Iteration    1(  16)  ---------------------------------------


    POTLOK:  cpu time    0.7089: real time    0.7082
    SETDIJ:  cpu time    0.0960: real time    0.0956
     EDDAV:  cpu time  134.5625: real time  134.5993
       DOS:  cpu time    0.0040: real time    0.0039
    --------------------------------------------
      LOOP:  cpu time  135.3724: real time  135.4078

 eigenvalue-minimisations  :  5456
 total energy-change (2. order) :-0.4699104E-06  (-0.1704070E-07)
 number of electron    1024.0000254 magnetization      46.0277746
 augmentation part      607.2566210 magnetization      39.4958156

 Free energy of the ion-electron system (eV)
  ---------------------------------------------------
  alpha Z        PSCENC =      8266.97428417
  Ewald energy   TEWEN  =   -144746.26977675
  -Hartree energ DENC   =    -64899.78407727
  -exchange      EXHF   =         0.00000000
  -V(xc)+E(xc)   XCENC  =      5598.55887539
  PAW double counting   =    170257.47351910  -179290.12516822
  entropy T*S    EENTRO =        -0.09398985
  eigenvalues    EBANDS =    -19562.57681861
  atomic energy  EATOM  =    224016.65216645
  Solvation  Ediel_sol  =         0.00000000
  ---------------------------------------------------
  free energy    TOTEN  =      -359.19098558 eV

  energy without entropy =     -359.09699573  energy(sigma->0) =     -359.15965563


--------------------------------------------------------------------------------------------------------




 average (electrostatic) potential at core
  the test charge radii are     0.8614
  (the norm of the test charge is              1.0000)
       1 -81.1853       2 -81.1853       3 -81.1853       4 -81.1853       5 -81.1853
       6 -81.1853       7 -81.1853       8 -81.1853       9 -81.1853      10 -81.1853
      11 -81.1853      12 -81.1853      13 -81.1853      14 -81.1853      15 -81.1853
      16 -81.1853      17 -81.1853      18 -81.1853      19 -81.1853      20 -81.1853
      21 -81.1853      22 -81.1853      23 -81.1853      24 -81.1853      25 -81.1853
      26 -81.1853      27 -81.1853      28 -81.1853      29 -81.1853      30 -81.1853
      31 -81.1853      32 -81.1853      33 -81.1853      34 -81.1853      35 -81.1853
      36 -81.1853      37 -81.1853      38 -81.1853      39 -81.1853      40 -81.1853
      41 -81.1853      42 -81.1853      43 -81.1853      44 -81.1853      45 -81.1853
      46 -81.1853      47 -81.1853      48 -81.1853      49 -81.1853      50 -81.1853
      51 -81.1853      52 -81.1853      53 -81.1853      54 -81.1853      55 -81.1853
      56 -81.1853      57 -81.1853      58 -81.1853      59 -81.1853      60 -81.1853
      61 -81.1853      62 -81.1853      63 -81.1853      64 -81.1853
 
 
 
 E-fermi :   5.8280     XC(G=0): -12.6656     alpha+bet :-12.4150


 spin component 1

 k-point     1 :       0.0000    0.0000    0.0000
  band No.  band energies     occupation 
      1     -57.9741      1.00000
      2     -57.9740      1.00000
      3     -57.9740      1.00000
      4     -57.9740      1.00000
      5     -57.9687      1.00000
      6     -57.9687      1.00000
      7     -57.9687      1.00000
      8     -57.9560      1.00000
      9     -57.9560      1.00000
     10     -57.9560      1.00000
     11     -57.9560      1.00000
     12     -57.9560      1.00000
     13     -57.9560      1.00000
     14     -57.9559      1.00000
     15     -57.9559      1.00000
     16     -57.9559      1.00000
     17     -57.9559      1.00000
     18     -57.9559      1.00000
     19     -57.9559      1.00000
     20     -57.9559      1.00000
     21     -57.9559      1.00000
     22     -57.9559      1.00000
     23     -57.9559      1.00000
     24     -57.9559      1.00000
     25     -57.9559      1.00000
     26     -57.9559      1.00000
     27     -57.9559      1.00000
     28     -57.9559      1.00000
     29     -57.9559      1.00000
     30     -57.9559      1.00000
     31     -57.9559      1.00000
     32     -57.9433      1.00000
     33     -57.9433      1.00000
     34     -57.9433      1.00000
     35     -57.9433      1.00000
     36     -57.9433      1.00000
     37     -57.9433      1.00000
     38     -57.9432      1.00000
     39     -57.9432      1.00000
     40     -57.9432      1.00000
     41     -57.9432      1.00000
     42     -57.9432      1.00000
     43     -57.9432      1.00000
     44     -57.9376      1.00000
     45     -57.9376      1.00000
     46     -57.9376      1.00000
     47     -57.9376      1.00000
     48     -57.9376      1.00000
     49     -57.9376      1.00000
     50     -57.9375      1.00000
     51     -57.9375      1.00000
     52     -57.9375      1.00000
     53     -57.9375      1.00000
     54     -57.9375      1.00000
     55     -57.9375      1.00000
     56     -57.9194      1.00000
     57     -57.9194      1.00000
     58     -57.9193      1.00000
     59     -57.9193      1.00000
     60     -57.9193      1.00000
     61     -57.9193      1.00000
     62     -57.9193      1.00000
     63     -57.9193      1.00000
     64     -57.9172      1.00000
     65     -57.9172      1.00000
     66     -57.9172      1.00000
     67     -57.9172      1.00000
     68     -57.9172      1.00000
     69     -57.9172      1.00000
     70     -57.9116      1.00000
     71     -57.9116      1.00000
     72     -57.9116      1.00000
     73     -57.9116      1.00000
     74     -57.9116      1.00000
     75     -57.9116      1.00000
     76     -57.9116      1.00000
     77     -57.9116      1.00000
     78     -57.9116      1.00000
     79     -57.9116      1.00000
     80     -57.9116      1.00000
     81     -57.9116      1.00000
     82     -57.9094      1.00000
     83     -57.9093      1.00000
     84     -57.9093      1.00000
     85     -57.9093      1.00000
     86     -57.9093      1.00000
     87     -57.9093      1.00000
     88     -57.9093      1.00000
     89     -57.9093      1.00000
     90     -57.9093      1.00000
     91     -57.9093      1.00000
     92     -57.9093      1.00000
     93     -57.9093      1.00000
     94     -57.9093      1.00000
     95     -57.9093      1.00000
     96     -57.9093      1.00000
     97     -57.9093      1.00000
     98     -57.9093      1.00000
     99     -57.9093      1.00000
    100     -57.9093      1.00000
    101     -57.9093      1.00000
    102     -57.9093      1.00000
    103     -57.9093      1.00000
    104     -57.9093      1.00000
    105     -57.9093      1.00000
    106     -57.9070      1.00000
    107     -57.9070      1.00000
    108     -57.9070      1.00000
    109     -57.9070      1.00000
    110     -57.9070      1.00000
    111     -57.9070      1.00000
    112     -57.9066      1.00000
    113     -57.9066      1.00000
    114     -57.9066      1.00000
    115     -57.9065      1.00000
    116     -57.9065      1.00000
    117     -57.9065      1.00000
    118     -57.8939      1.00000
    119     -57.8939      1.00000
    120     -57.8939      1.00000
    121     -57.8939      1.00000
    122     -57.8939      1.00000
    123     -57.8939      1.00000
    124     -57.8939      1.00000
    125     -57.8939      1.00000
    126     -57.8939      1.00000
    127     -57.8939      1.00000
    128     -57.8939      1.00000
    129     -57.8939      1.00000
    130     -57.8938      1.00000
    131     -57.8938      1.00000
    132     -57.8938      1.00000
    133     -57.8938      1.00000
    134     -57.8938      1.00000
    135     -57.8938      1.00000
    136     -57.8938      1.00000
    137     -57.8938      1.00000
    138     -57.8938      1.00000
    139     -57.8938      1.00000
    140     -57.8938      1.00000
    141     -57.8938      1.00000
    142     -57.8855      1.00000
    143     -57.8855      1.00000
    144     -57.8855      1.00000
    145     -57.8855      1.00000
    146     -57.8855      1.00000
    147     -57.8855      1.00000
    148     -57.8855      1.00000
    149     -57.8855      1.00000
    150     -57.8855      1.00000
    151     -57.8855      1.00000
    152     -57.8855      1.00000
    153     -57.8855      1.00000
    154     -57.8810      1.00000
    155     -57.8810      1.00000
    156     -57.8810      1.00000
    157     -57.8810      1.00000
    158     -57.8810      1.00000
    159     -57.8810      1.00000
    160     -57.8810      1.00000
    161     -57.8810      1.00000
    162     -57.8810      1.00000
    163     -57.8810      1.00000
    164     -57.8810      1.00000
    165     -57.8810      1.00000
    166     -57.8810      1.00000
    167     -57.8810      1.00000
    168     -57.8810      1.00000
    169     -57.8809      1.00000
    170     -57.8809      1.00000
    171     -57.8809      1.00000
    172     -57.8809      1.00000
    173     -57.8809      1.00000
    174     -57.8728      1.00000
    175     -57.8728      1.00000
    176     -57.8728      1.00000
    177     -57.8728      1.00000
    178     -57.8728      1.00000
    179     -57.8728      1.00000
    180     -57.8728      1.00000
    181     -57.8728      1.00000
    182     -57.8728      1.00000
    183     -57.8728      1.00000
    184     -57.8728      1.00000
    185     -57.8727      1.00000
    186     -57.8727      1.00000
    187     -57.8727      1.00000
    188     -57.8727      1.00000
    189     -57.8727      1.00000
    190     -57.8646      1.00000
    191     -57.8645      1.00000
    192     -57.8645      1.00000
    193      -2.0582      1.00000
    194      -0.0752      1.00000
    195      -0.0752      1.00000
    196      -0.0752      1.00000
    197      -0.0752      1.00000
    198      -0.0752      1.00000
    199      -0.0752      1.00000
    200      -0.0752      1.00000
    201      -0.0752      1.00000
    202       0.5282      1.00000
    203       0.5282      1.00000
    204       0.5282      1.00000
    205       0.5282      1.00000
    206       0.5282      1.00000
    207       0.5282      1.00000
    208       1.8028      1.00000
    209       1.8030      1.00000
    210       1.8030      1.00000
    211       1.8030      1.00000
    212       2.0531      1.00000
    213       2.0531      1.00000
    214       2.0531      1.00000
    215       2.2431      1.00000
    216       2.2431      1.00000
    217       2.2431      1.00000
    218       2.2431      1.00000
    219       2.2431      1.00000
    220       2.2431      1.00000
    221       2.2432      1.00000
    222       2.2432      1.00000
    223       2.2432      1.00000
    224       2.2432      1.00000
    225       2.2432      1.00000
    226       2.2432      1.00000
    227       2.3867      1.00000
    228       2.3867      1.00000
    229       2.3867      1.00000
    230       2.4420      1.00000
    231       2.4420      1.00000
    232       2.4420      1.00000
    233       2.4420      1.00000
    234       2.4420      1.00000
    235       2.4420      1.00000
    236       2.4421      1.00000
    237       2.4421      1.00000
    238       2.4421      1.00000
    239       2.4421      1.00000
    240       2.4421      1.00000
    241       2.4421      1.00000
    242       2.4421      1.00000
    243       2.4421      1.00000
    244       2.4421      1.00000
    245       2.4421      1.00000
    246       2.4421      1.00000
    247       2.4421      1.00000
    248       2.4421      1.00000
    249       2.4421      1.00000
    250       2.4421      1.00000
    251       2.4421      1.00000
    252       2.4421      1.00000
    253       2.4421      1.00000
    254       2.7632      1.00000
    255       2.7632      1.00000
    256       2.7632      1.00000
    257       2.7632      1.00000
    258       2.7632      1.00000
    259       2.7632      1.00000
    260       2.9882      1.00000
    261       2.9882      1.00000
    262       2.9882      1.00000
    263       2.9882      1.00000
    264       2.9882      1.00000
    265       2.9882      1.00000
    266       2.9882      1.00000
    267       2.9882      1.00000
    268       2.9882      1.00000
    269       2.9882      1.00000
    270       2.9882      1.00000
    271       2.9882      1.00000
    272       2.9882      1.00000
    273       2.9882      1.00000
    274       2.9882      1.00000
    275       2.9882      1.00000
    276       2.9882      1.00000
    277       2.9882      1.00000
    278       2.9882      1.00000
    279       2.9882      1.00000
    280       2.9882      1.00000
    281       2.9882      1.00000
    282       2.9882      1.00000
    283       2.9882      1.00000
    284       3.0336      1.00000
    285       3.0336      1.00000
    286       3.0336      1.00000
    287       3.0336      1.00000
    288       3.0336      1.00000
    289       3.0336      1.00000
    290       3.2514      1.00000
    291       3.2514      1.00000
    292       3.2514      1.00000
    293       3.2514      1.00000
    294       3.2514      1.00000
    295       3.2514      1.00000
    296       3.2514      1.00000
    297       3.2514      1.00000
    298       3.2514      1.00000
    299       3.2514      1.00000
    300       3.2514      1.00000
    301       3.2514      1.00000
    302       3.2530      1.00000
    303       3.2530      1.00000
    304       3.2530      1.00000
    305       3.2530      1.00000
    306       3.2530      1.00000
    307       3.2530      1.00000
    308       3.2531      1.00000
    309       3.2531      1.00000
    310       3.2531      1.00000
    311       3.2531      1.00000
    312       3.2531      1.00000
    313       3.2531      1.00000
    314       3.4939      1.00000
    315       3.4939      1.00000
    316       3.4939      1.00000
    317       3.4939      1.00000
    318       3.4939      1.00000
    319       3.4939      1.00000
    320       3.4939      1.00000
    321       3.4940      1.00000
    322       3.5199      1.00000
    323       3.5199      1.00000
    324       3.5199      1.00000
    325       3.5199      1.00000
    326       3.5199      1.00000
    327       3.5199      1.00000
    328       3.5199      1.00000
    329       3.5199      1.00000
    330       3.5199      1.00000
    331       3.5199      1.00000
    332       3.5199      1.00000
    333       3.5199      1.00000
    334       3.7210      1.00000
    335       3.7210      1.00000
    336       3.7210      1.00000
    337       3.7503      1.00000
    338       3.7503      1.00000
    339       3.7503      1.00000
    340       3.7503      1.00000
    341       3.7503      1.00000
    342       3.7503      1.00000
    343       3.7503      1.00000
    344       3.7503      1.00000
    345       3.7760      1.00000
    346       3.7760      1.00000
    347       3.7760      1.00000
    348       3.7760      1.00000
    349       3.7760      1.00000
    350       3.7760      1.00000
    351       3.7760      1.00000
    352       3.7760      1.00000
    353       3.7760      1.00000
    354       3.7760      1.00000
    355       3.7760      1.00000
    356       3.7760      1.00000
    357       3.7760      1.00000
    358       3.7760      1.00000
    359       3.7760      1.00000
    360       3.7760      1.00000
    361       3.7760      1.00000
    362       3.7760      1.00000
    363       3.7760      1.00000
    364       3.7760      1.00000
    365       3.7760      1.00000
    366       3.7760      1.00000
    367       3.7760      1.00000
    368       3.7760      1.00000
    369       3.9007      1.00000
    370       3.9007      1.00000
    371       3.9007      1.00000
    372       3.9007      1.00000
    373       3.9007      1.00000
    374       3.9007      1.00000
    375       3.9007      1.00000
    376       3.9007      1.00000
    377       3.9007      1.00000
    378       3.9007      1.00000
    379       3.9007      1.00000
    380       3.9007      1.00000
    381       3.9007      1.00000
    382       3.9007      1.00000
    383       3.9007      1.00000
    384       3.9007      1.00000
    385       4.1860      1.00000
    386       4.1860      1.00000
    387       4.1860      1.00000
    388       4.1860      1.00000
    389       4.1860      1.00000
    390       4.1860      1.00000
    391       4.3117      1.00000
    392       4.3117      1.00000
    393       4.3117      1.00000
    394       4.3117      1.00000
    395       4.3117      1.00000
    396       4.3117      1.00000
    397       4.3117      1.00000
    398       4.3117      1.00000
    399       4.3117      1.00000
    400       4.3117      1.00000
    401       4.3117      1.00000
    402       4.3117      1.00000
    403       4.3610      1.00000
    404       4.3610      1.00000
    405       4.3610      1.00000
    406       4.3610      1.00000
    407       4.3610      1.00000
    408       4.3610      1.00000
    409       4.3611      1.00000
    410       4.3611      1.00000
    411       4.3611      1.00000
    412       4.3611      1.00000
    413       4.3611      1.00000
    414       4.3611      1.00000
    415       4.4053      1.00000
    416       4.4053      1.00000
    417       4.4053      1.00000
    418       4.4053      1.00000
    419       4.4053      1.00000
    420       4.4053      1.00000
    421       4.4053      1.00000
    422       4.4053      1.00000
    423       4.4053      1.00000
    424       4.4053      1.00000
    425       4.4053      1.00000
    426       4.4053      1.00000
    427       4.4053      1.00000
    428       4.4053      1.00000
    429       4.4053      1.00000
    430       4.4053      1.00000
    431       4.4053      1.00000
    432       4.4053      1.00000
    433       4.4054      1.00000
    434       4.4054      1.00000
    435       4.4054      1.00000
    436       4.4054      1.00000
    437       4.4054      1.00000
    438       4.4054      1.00000
    439       4.5152      1.00000
    440       4.5152      1.00000
    441       4.5152      1.00000
    442       4.5152      1.00000
    443       4.5152      1.00000
    444       4.5152      1.00000
    445       4.5152      1.00000
    446       4.5152      1.00000
    447       4.5152      1.00000
    448       4.5152      1.00000
    449       4.5152      1.00000
    450       4.5152      1.00000
    451       4.5884      1.00000
    452       4.5884      1.00000
    453       4.5884      1.00000
    454       4.5884      1.00000
    455       4.5884      1.00000
    456       4.5884      1.00000
    457       4.6273      1.00000
    458       4.6273      1.00000
    459       4.6779      1.00000
    460       4.6779      1.00000
    461       4.6779      1.00000
    462       4.6779      1.00000
    463       4.6779      1.00000
    464       4.6779      1.00000
    465       4.6779      1.00000
    466       4.6779      1.00000
    467       4.6779      1.00000
    468       4.6779      1.00000
    469       4.6779      1.00000
    470       4.6779      1.00000
    471       4.6779      1.00000
    472       4.6779      1.00000
    473       4.6779      1.00000
    474       4.6779      1.00000
    475       4.8927      1.00000
    476       4.8927      1.00000
    477       4.8927      1.00000
    478       4.8927      1.00000
    479       4.8927      1.00000
    480       4.8927      1.00000
    481       5.1171      1.00000
    482       5.1171      1.00000
    483       5.1172      1.00000
    484       5.1172      1.00000
    485       5.1172      1.00000
    486       5.1172      1.00000
    487       5.1172      1.00000
    488       5.1172      1.00000
    489       5.1521      1.00001
    490       5.1521      1.00001
    491       5.1521      1.00001
    492       5.1521      1.00001
    493       5.1521      1.00001
    494       5.1521      1.00001
    495       5.1521      1.00001
    496       5.1521      1.00001
    497       5.1521      1.00001
    498       5.1521      1.00001
    499       5.1521      1.00001
    500       5.1521      1.00001
    501       5.1521      1.00001
    502       5.1521      1.00001
    503       5.1521      1.00001
    504       5.1521      1.00001
    505       5.1521      1.00001
    506       5.1521      1.00001
    507       5.1522      1.00001
    508       5.1522      1.00001
    509       5.1522      1.00001
    510       5.1522      1.00001
    511       5.1522      1.00001
    512       5.1522      1.00001
    513       5.1653      1.00001
    514       5.1653      1.00001
    515       5.1653      1.00001
    516       5.2065      1.00005
    517       5.2065      1.00005
    518       5.2065      1.00005
    519       5.2066      1.00005
    520       5.2066      1.00005
    521       5.2066      1.00005
    522       5.2076      1.00005
    523       5.2076      1.00005
    524       5.2076      1.00005
    525       5.2076      1.00005
    526       5.2076      1.00005
    527       5.2076      1.00005
    528       5.7985      0.62357
    529       5.7985      0.62356
    530       5.7985      0.62356
    531       5.7986      0.62313
    532       6.4109     -0.00015
    533       6.4109     -0.00015
    534       6.4109     -0.00015
    535       6.4109     -0.00015
    536       6.4109     -0.00015
    537       6.4109     -0.00015
    538       6.4109     -0.00015
    539       6.4109     -0.00015
    540       6.4109     -0.00015
    541       6.4109     -0.00015
    542       6.4109     -0.00015
    543       6.4109     -0.00015
    544       7.6114     -0.00000
    545       7.6114     -0.00000
    546       7.6114     -0.00000
    547       7.6114     -0.00000
    548       7.6114     -0.00000
    549       7.6114     -0.00000
    550       7.6114     -0.00000
    551       7.6114     -0.00000
    552       7.6114     -0.00000
    553       7.6114     -0.00000
    554       7.6114     -0.00000
    555       7.6114     -0.00000
    556       7.6114     -0.00000
    557       7.6114     -0.00000
    558       7.6114     -0.00000
    559       7.6114     -0.00000
    560       7.6114     -0.00000
    561       7.6114     -0.00000
    562       7.6114     -0.00000
    563       7.6114     -0.00000
    564       7.6114     -0.00000
    565       7.6114     -0.00000
    566       7.6114     -0.00000
    567       7.6114     -0.00000
    568       8.1301     -0.00000
    569       8.1301     -0.00000
    570       8.1301     -0.00000
    571      10.2582     -0.00000
    572      10.2582     -0.00000
    573      10.2582     -0.00000
    574      10.2582     -0.00000
    575      12.5688      0.00000
    576      12.5688      0.00000
    577      12.5688      0.00000
    578      12.5688      0.00000
    579      12.5688      0.00000
    580      12.5688      0.00000
    581      12.5689      0.00000
    582      12.5689      0.00000
[...]
      7.473000  3.736500  3.736500    -0.031000   -0.120784    0.008677  
      9.341250  5.604750  3.736500    -0.031000   -0.120784    0.008677  
      5.604750  0.000000  5.604750    -0.031000   -0.120784    0.008677  
      7.473000  1.868250  5.604750    -0.031000   -0.120784    0.008677  
      9.341250  3.736500  5.604750    -0.031000   -0.120784    0.008677  
     11.209500  5.604750  5.604750    -0.031000   -0.120784    0.008677  
      0.000000  1.868250  1.868250    -0.031000   -0.120784    0.008677  
      1.868250  3.736500  1.868250    -0.031000   -0.120784    0.008677  
      3.736500  5.604750  1.868250    -0.031000   -0.120784    0.008677  
      5.604750  7.473000  1.868250    -0.031000   -0.120784    0.008677  
      1.868250  1.868250  3.736500    -0.031000   -0.120784    0.008677  
      3.736500  3.736500  3.736500    -0.031000   -0.120784    0.008677  
      5.604750  5.604750  3.736500    -0.031000   -0.120784    0.008677  
      7.473000  7.473000  3.736500    -0.031000   -0.120784    0.008677  
      3.736500  1.868250  5.604750    -0.031000   -0.120784    0.008677  
      5.604750  3.736500  5.604750    -0.031000   -0.120784    0.008677  
      7.473000  5.604750  5.604750    -0.031000   -0.120784    0.008677  
      9.341250  7.473000  5.604750    -0.031000   -0.120784    0.008677  
      5.604750  1.868250  7.473000    -0.031000   -0.120784    0.008677  
      7.473000  3.736500  7.473000    -0.031000   -0.120784    0.008677  
      9.341250  5.604750  7.473000    -0.031000   -0.120784    0.008677  
     11.209500  7.473000  7.473000    -0.031000   -0.120784    0.008677  
      0.000000  3.736500  3.736500    -0.031000   -0.120784    0.008677  
      1.868250  5.604750  3.736500    -0.031000   -0.120784    0.008677  
      3.736500  7.473000  3.736500    -0.031000   -0.120784    0.008677  
      5.604750  9.341250  3.736500    -0.031000   -0.120784    0.008677  
      1.868250  3.736500  5.604750    -0.031000   -0.120784    0.008677  
      3.736500  5.604750  5.604750    -0.031000   -0.120784    0.008677  
      5.604750  7.473000  5.604750    -0.031000   -0.120784    0.008677  
      7.473000  9.341250  5.604750    -0.031000   -0.120784    0.008677  
      3.736500  3.736500  7.473000    -0.031000   -0.120784    0.008677  
      5.604750  5.604750  7.473000    -0.031000   -0.120784    0.008677  
      7.473000  7.473000  7.473000    -0.031000   -0.120784    0.008677  
      9.341250  9.341250  7.473000    -0.031000   -0.120784    0.008677  
      5.604750  3.736500  9.341250    -0.031000   -0.120784    0.008677  
      7.473000  5.604750  9.341250    -0.031000   -0.120784    0.008677  
      9.341250  7.473000  9.341250    -0.031000   -0.120784    0.008677  
     11.209500  9.341250  9.341250    -0.031000   -0.120784    0.008677  
      0.000000  5.604750  5.604750    -0.031000   -0.120784    0.008677  
      1.868250  7.473000  5.604750    -0.031000   -0.120784    0.008677  
      3.736500  9.341250  5.604750    -0.031000   -0.120784    0.008677  
      5.604750 11.209500  5.604750    -0.031000   -0.120784    0.008677  
      1.868250  5.604750  7.473000    -0.031000   -0.120784    0.008677  
      3.736500  7.473000  7.473000    -0.031000   -0.120784    0.008677  
      5.604750  9.341250  7.473000    -0.031000   -0.120784    0.008677  
      7.473000 11.209500  7.473000    -0.031000   -0.120784    0.008677  
      3.736500  5.604750  9.341250    -0.031000   -0.120784    0.008677  
      5.604750  7.473000  9.341250    -0.031000   -0.120784    0.008677  
      7.473000  9.341250  9.341250    -0.031000   -0.120784    0.008677  
      9.341250 11.209500  9.341250    -0.031000   -0.120784    0.008677  
      5.604750  5.604750 11.209500    -0.031000   -0.120784    0.008677  
      7.473000  7.473000 11.209500    -0.031000   -0.120784    0.008677  
      9.341250  9.341250 11.209500    -0.031000   -0.120784    0.008677  
     11.209500 11.209500 11.209500    -0.031000   -0.120784    0.008677  
 
 192 f/i=    0.000001 THz     0.000004 2PiTHz    0.000023 cm-1     0.000003 meV
             X         Y         Z           dx          dy          dz
      0.000000  0.000000  0.000000    -0.000004    0.008958    0.124679  
      1.868250  1.868250  0.000000    -0.000004    0.008958    0.124679  
      3.736500  3.736500  0.000000    -0.000004    0.008958    0.124679  
      5.604750  5.604750  0.000000    -0.000004    0.008958    0.124679  
      1.868250  0.000000  1.868250    -0.000004    0.008958    0.124679  
      3.736500  1.868250  1.868250    -0.000004    0.008958    0.124679  
      5.604750  3.736500  1.868250    -0.000004    0.008958    0.124679  
      7.473000  5.604750  1.868250    -0.000004    0.008958    0.124679  
      3.736500  0.000000  3.736500    -0.000004    0.008958    0.124679  
      5.604750  1.868250  3.736500    -0.000004    0.008958    0.124679  
      7.473000  3.736500  3.736500    -0.000004    0.008958    0.124679  
      9.341250  5.604750  3.736500    -0.000004    0.008958    0.124679  
      5.604750  0.000000  5.604750    -0.000004    0.008958    0.124679  
      7.473000  1.868250  5.604750    -0.000004    0.008958    0.124679  
      9.341250  3.736500  5.604750    -0.000004    0.008958    0.124679  
     11.209500  5.604750  5.604750    -0.000004    0.008958    0.124679  
      0.000000  1.868250  1.868250    -0.000004    0.008958    0.124679  
      1.868250  3.736500  1.868250    -0.000004    0.008958    0.124679  
      3.736500  5.604750  1.868250    -0.000004    0.008958    0.124679  
      5.604750  7.473000  1.868250    -0.000004    0.008958    0.124679  
      1.868250  1.868250  3.736500    -0.000004    0.008958    0.124679  
      3.736500  3.736500  3.736500    -0.000004    0.008958    0.124679  
      5.604750  5.604750  3.736500    -0.000004    0.008958    0.124679  
      7.473000  7.473000  3.736500    -0.000004    0.008958    0.124679  
      3.736500  1.868250  5.604750    -0.000004    0.008958    0.124679  
      5.604750  3.736500  5.604750    -0.000004    0.008958    0.124679  
      7.473000  5.604750  5.604750    -0.000004    0.008958    0.124679  
      9.341250  7.473000  5.604750    -0.000004    0.008958    0.124679  
      5.604750  1.868250  7.473000    -0.000004    0.008958    0.124679  
      7.473000  3.736500  7.473000    -0.000004    0.008958    0.124679  
      9.341250  5.604750  7.473000    -0.000004    0.008958    0.124679  
     11.209500  7.473000  7.473000    -0.000004    0.008958    0.124679  
      0.000000  3.736500  3.736500    -0.000004    0.008958    0.124679  
      1.868250  5.604750  3.736500    -0.000004    0.008958    0.124679  
      3.736500  7.473000  3.736500    -0.000004    0.008958    0.124679  
      5.604750  9.341250  3.736500    -0.000004    0.008958    0.124679  
      1.868250  3.736500  5.604750    -0.000004    0.008958    0.124679  
      3.736500  5.604750  5.604750    -0.000004    0.008958    0.124679  
      5.604750  7.473000  5.604750    -0.000004    0.008958    0.124679  
      7.473000  9.341250  5.604750    -0.000004    0.008958    0.124679  
      3.736500  3.736500  7.473000    -0.000004    0.008958    0.124679  
      5.604750  5.604750  7.473000    -0.000004    0.008958    0.124679  
      7.473000  7.473000  7.473000    -0.000004    0.008958    0.124679  
      9.341250  9.341250  7.473000    -0.000004    0.008958    0.124679  
      5.604750  3.736500  9.341250    -0.000004    0.008958    0.124679  
      7.473000  5.604750  9.341250    -0.000004    0.008958    0.124679  
      9.341250  7.473000  9.341250    -0.000004    0.008958    0.124679  
     11.209500  9.341250  9.341250    -0.000004    0.008958    0.124679  
      0.000000  5.604750  5.604750    -0.000004    0.008958    0.124679  
      1.868250  7.473000  5.604750    -0.000004    0.008958    0.124679  
      3.736500  9.341250  5.604750    -0.000004    0.008958    0.124679  
      5.604750 11.209500  5.604750    -0.000004    0.008958    0.124679  
      1.868250  5.604750  7.473000    -0.000004    0.008958    0.124679  
      3.736500  7.473000  7.473000    -0.000004    0.008958    0.124679  
      5.604750  9.341250  7.473000    -0.000004    0.008958    0.124679  
      7.473000 11.209500  7.473000    -0.000004    0.008958    0.124679  
      3.736500  5.604750  9.341250    -0.000004    0.008958    0.124679  
      5.604750  7.473000  9.341250    -0.000004    0.008958    0.124679  
      7.473000  9.341250  9.341250    -0.000004    0.008958    0.124679  
      9.341250 11.209500  9.341250    -0.000004    0.008958    0.124679  
      5.604750  5.604750 11.209500    -0.000004    0.008958    0.124679  
      7.473000  7.473000 11.209500    -0.000004    0.008958    0.124679  
      9.341250  9.341250 11.209500    -0.000004    0.008958    0.124679  
     11.209500 11.209500 11.209500    -0.000004    0.008958    0.124679  
 

 ELASTIC MODULI CONTR FROM IONIC RELAXATION (kBar)
 Direction    XX          YY          ZZ          XY          YZ          ZX
 --------------------------------------------------------------------------------
 XX           0.0000      0.0000      0.0000     -0.0000     -0.0000      0.0000
 YY           0.0000      0.0000      0.0000     -0.0000     -0.0000      0.0000
 ZZ           0.0000      0.0000      0.0000     -0.0000     -0.0000      0.0000
 XY          -0.0000     -0.0000     -0.0000      0.0000      0.0000      0.0000
 YZ          -0.0000     -0.0000     -0.0000      0.0000      0.0000     -0.0000
 ZX           0.0000      0.0000      0.0000      0.0000      0.0000     -0.0000
 --------------------------------------------------------------------------------



--------------------------------------------------------------------------------------------------------


  LATTYP: Found a face centered cubic cell.
 ALAT       =    14.9460000000
  
  Lattice vectors:
  
 A1 = (   0.0000000000,   7.4730000000,   7.4730000000)
 A2 = (   7.4730000000,   0.0000000000,   7.4730000000)
 A3 = (   7.4730000000,   7.4730000000,   0.0000000000)


Analysis of symmetry for initial positions (statically):
=====================================================================
 Subroutine PRICEL returns following result:
 
  LATTYP: Found a face centered cubic cell.
 ALAT       =     3.7365000000
  
  Lattice vectors:
  
 A1 = (   0.0000000000,   1.8682500000,   1.8682500000)
 A2 = (   1.8682500000,   0.0000000000,   1.8682500000)
 A3 = (   1.8682500000,   1.8682500000,   0.0000000000)
 
  64 primitive cells build up your supercell.
 

 Routine SETGRP: Setting up the symmetry group for a 
 face centered cubic supercell.


 Subroutine GETGRP returns: Found 48 space group operations
 (whereof 48 operations were pure point group operations)
 out of a pool of 48 trial point group operations.


The static configuration has the point symmetry O_h .


Analysis of symmetry for dynamics (positions and initial velocities):
=====================================================================
 Subroutine PRICEL returns following result:
 
  LATTYP: Found a face centered cubic cell.
 ALAT       =     3.7365000000
  
  Lattice vectors:
  
 A1 = (   0.0000000000,   1.8682500000,   1.8682500000)
 A2 = (   1.8682500000,   0.0000000000,   1.8682500000)
 A3 = (   1.8682500000,   1.8682500000,   0.0000000000)
 
  64 primitive cells build up your supercell.
 

 Routine SETGRP: Setting up the symmetry group for a 
 face centered cubic supercell.


 Subroutine GETGRP returns: Found 48 space group operations
 (whereof 48 operations were pure point group operations)
 out of a pool of 48 trial point group operations.


The dynamic configuration has the point symmetry O_h .


Analysis of structural, dynamic, and magnetic symmetry:
=====================================================================
 Subroutine PRICEL returns following result:
 
  LATTYP: Found a face centered cubic cell.
 ALAT       =     3.7365000000
  
  Lattice vectors:
  
 A1 = (   0.0000000000,   1.8682500000,   1.8682500000)
 A2 = (   1.8682500000,   0.0000000000,   1.8682500000)
 A3 = (   1.8682500000,   1.8682500000,   0.0000000000)
 
  64 primitive cells build up your supercell.
 

 Routine SETGRP: Setting up the symmetry group for a 
 face centered cubic supercell.


 Subroutine GETGRP returns: Found 48 space group operations
 (whereof 48 operations were pure point group operations)
 out of a pool of 48 trial point group operations.


The magnetic configuration has the point symmetry O_h .


 Subroutine INISYM returns: Found 48 space group operations
 (whereof 48 operations are pure point group operations),
 and found    64 'primitive' translations

 
 KPOINTS: Zr 15x15x15                             

Automatic generation of k-mesh.
Space group operators:
 irot       det(A)        alpha          n_x          n_y          n_z        tau_x        tau_y        tau_z
    1     1.000000     0.000000     1.000000     0.000000     0.000000     0.000000     0.000000     0.000000
    2    -1.000000     0.000000     1.000000     0.000000     0.000000     0.000000     0.000000     0.000000
    3     1.000000   120.000000    -0.577350    -0.577350    -0.577350     0.000000     0.000000     0.000000
    4    -1.000000   120.000000    -0.577350    -0.577350    -0.577350     0.000000     0.000000     0.000000
    5     1.000000   120.000000     0.577350     0.577350     0.577350     0.000000     0.000000     0.000000
    6    -1.000000   120.000000     0.577350     0.577350     0.577350     0.000000     0.000000     0.000000
    7     1.000000    90.000000     0.000000     0.000000    -1.000000     0.000000     0.000000     0.000000
    8    -1.000000    90.000000     0.000000     0.000000    -1.000000     0.000000     0.000000     0.000000
    9     1.000000   180.000000     0.000000     0.707107     0.707107     0.000000     0.000000     0.000000
   10    -1.000000   180.000000     0.000000     0.707107     0.707107     0.000000     0.000000     0.000000
   11     1.000000    90.000000     0.000000     1.000000     0.000000     0.000000     0.000000     0.000000
   12    -1.000000    90.000000     0.000000     1.000000     0.000000     0.000000     0.000000     0.000000
   13     1.000000   180.000000     0.000000     0.000000     1.000000     0.000000     0.000000     0.000000
   14    -1.000000   180.000000     0.000000     0.000000     1.000000     0.000000     0.000000     0.000000
   15     1.000000   120.000000    -0.577350     0.577350     0.577350     0.000000     0.000000     0.000000
   16    -1.000000   120.000000    -0.577350     0.577350     0.577350     0.000000     0.000000     0.000000
   17     1.000000   120.000000    -0.577350     0.577350    -0.577350     0.000000     0.000000     0.000000
   18    -1.000000   120.000000    -0.577350     0.577350    -0.577350     0.000000     0.000000     0.000000
   19     1.000000    90.000000     0.000000     0.000000     1.000000     0.000000     0.000000     0.000000
   20    -1.000000    90.000000     0.000000     0.000000     1.000000     0.000000     0.000000     0.000000
   21     1.000000    90.000000    -1.000000     0.000000     0.000000     0.000000     0.000000     0.000000
   22    -1.000000    90.000000    -1.000000     0.000000     0.000000     0.000000     0.000000     0.000000
   23     1.000000   180.000000     0.707107     0.000000     0.707107     0.000000     0.000000     0.000000
   24    -1.000000   180.000000     0.707107     0.000000     0.707107     0.000000     0.000000     0.000000
   25     1.000000   120.000000     0.577350    -0.577350     0.577350     0.000000     0.000000     0.000000
   26    -1.000000   120.000000     0.577350    -0.577350     0.577350     0.000000     0.000000     0.000000
   27     1.000000   120.000000    -0.577350    -0.577350     0.577350     0.000000     0.000000     0.000000
   28    -1.000000   120.000000    -0.577350    -0.577350     0.577350     0.000000     0.000000     0.000000
   29     1.000000   180.000000     1.000000     0.000000     0.000000     0.000000     0.000000     0.000000
   30    -1.000000   180.000000     1.000000     0.000000     0.000000     0.000000     0.000000     0.000000
   31     1.000000    90.000000     0.000000    -1.000000     0.000000     0.000000     0.000000     0.000000
   32    -1.000000    90.000000     0.000000    -1.000000     0.000000     0.000000     0.000000     0.000000
   33     1.000000   180.000000     0.707107     0.707107     0.000000     0.000000     0.000000     0.000000
   34    -1.000000   180.000000     0.707107     0.707107     0.000000     0.000000     0.000000     0.000000
   35     1.000000    90.000000     1.000000     0.000000     0.000000     0.000000     0.000000     0.000000
   36    -1.000000    90.000000     1.000000     0.000000     0.000000     0.000000     0.000000     0.000000
   37     1.000000   120.000000     0.577350    -0.577350    -0.577350     0.000000     0.000000     0.000000
   38    -1.000000   120.000000     0.577350    -0.577350    -0.577350     0.000000     0.000000     0.000000
   39     1.000000   180.000000     0.000000     1.000000     0.000000     0.000000     0.000000     0.000000
   40    -1.000000   180.000000     0.000000     1.000000     0.000000     0.000000     0.000000     0.000000
   41     1.000000   120.000000     0.577350     0.577350    -0.577350     0.000000     0.000000     0.000000
   42    -1.000000   120.000000     0.577350     0.577350    -0.577350     0.000000     0.000000     0.000000
   43     1.000000   180.000000     0.000000    -0.707107     0.707107     0.000000     0.000000     0.000000
   44    -1.000000   180.000000     0.000000    -0.707107     0.707107     0.000000     0.000000     0.000000
   45     1.000000   180.000000     0.707107    -0.707107     0.000000     0.000000     0.000000     0.000000
   46    -1.000000   180.000000     0.707107    -0.707107     0.000000     0.000000     0.000000     0.000000
   47     1.000000   180.000000     0.707107     0.000000    -0.707107     0.000000     0.000000     0.000000
   48    -1.000000   180.000000     0.707107     0.000000    -0.707107     0.000000     0.000000     0.000000
 
 Subroutine IBZKPT returns following result:
 ===========================================
 
 Found      4 irreducible k-points:
 
 Following reciprocal coordinates:
            Coordinates               Weight
  0.000000  0.000000  0.000000      1.000000
  0.333333  0.000000  0.000000      8.000000
  0.333333  0.333333  0.000000      6.000000
 -0.333333  0.333333  0.000000     12.000000
 
 Following cartesian coordinates:
            Coordinates               Weight
  0.000000  0.000000  0.000000      1.000000
 -0.022303  0.022303  0.022303      8.000000
  0.000000  0.000000  0.044605      6.000000
  0.044605 -0.044605  0.000000     12.000000
 
 writing wavefunctions
     LOOP+:  cpu time 6518.9420: real time 6545.7639
    4ORBIT:  cpu time    0.0000: real time    0.0000

 total amount of memory used by VASP on root node   590736. kBytes
========================================================================

   base      :      30000. kBytes
   nonlr-proj:      47454. kBytes
   fftplans  :      20120. kBytes
   grid      :      78194. kBytes
   one-center:       1990. kBytes
   wavefun   :     412978. kBytes
 
  
  
 General timing and accounting informations for this job:
 ========================================================
  
                  Total CPU time used (sec):    16062.732
                            User time (sec):    15853.441
                          System time (sec):      209.291
                         Elapsed time (sec):    16113.874
  
                   Maximum memory used (kb):     1451324.
                   Average memory used (kb):           0.
  
                          Minor page faults:        57213
                          Major page faults:            0
                 Voluntary context switches:         1494
