<?xml version="1.0" encoding="ISO-8859-1"?>
<modeling>
 <generator>
  <i name="program" type="string">vasp </i>
  <i name="version" type="string">5.4.1  </i>
  <i name="subversion" type="string">05Feb16 (build Oct 12 2016 17:31:35) complex                          parallel </i>
  <i name="platform" type="string">IFC91_ompi </i>
  <i name="date" type="string">2020 09 07 </i>
  <i name="time" type="string">23:17:52 </i>
 </generator>
 <incar>
  <i type="string" name="SYSTEM"> phonon of Zr bcc - omiga</i>
  <i type="string" name="PREC">h</i>
  <i type="int" name="ISPIN">     2</i>
  <i type="int" name="IBRION">     6</i>
  <i name="EDIFF">      0.00000100</i>
  <i type="int" name="NSW">     1</i>
  <v name="MAGMOM">      1.00000000      1.00000000      1.00000000      1.00000000      1.00000000      1.00000000      1.00000000      1.00000000      1.00000000      1.00000000      1.00000000      1.00000000      1.00000000      1.00000000      1.00000000      1.00000000      1.00000000      1.00000000      1.00000000      1.00000000
      1.00000000      1.00000000      1.00000000      1.00000000      1.00000000      1.00000000      1.00000000      1.00000000      1.00000000      1.00000000      1.00000000      1.00000000      1.00000000      1.00000000      1.00000000      1.00000000      1.00000000      1.00000000      1.00000000      1.00000000
      1.00000000      1.00000000      1.00000000      1.00000000      1.00000000      1.00000000      1.00000000      1.00000000      1.00000000      1.00000000      1.00000000      1.00000000      1.00000000      1.00000000      1.00000000      1.00000000      1.00000000      1.00000000      1.00000000      1.00000000
      1.00000000      1.00000000      1.00000000      1.00000000</v>
  <i type="string" name="LREAL">Auto</i>
  <i type="int" name="ISMEAR">     1</i>
  <i type="int" name="NWRITE">     0</i>
  <v type="int" name="KPOINT_BSE">    -1     0     0     0</v>
 </incar>
 <kpoints>
  <generation param="Gamma">
   <v type="int" name="divisions">       3        3        3 </v>
   <v name="usershift">      0.00000000       0.00000000       0.00000000 </v>
   <v name="genvec1">      0.33333333       0.00000000       0.00000000 </v>
   <v name="genvec2">      0.00000000       0.33333333       0.00000000 </v>
   <v name="genvec3">      0.00000000       0.00000000       0.33333333 </v>
   <v name="shift">      0.00000000       0.00000000       0.00000000 </v>
  </generation>
  <varray name="kpointlist" >
   <v>       0.00000000       0.00000000       0.00000000 </v>
   <v>       0.33333333       0.00000000       0.00000000 </v>
   <v>       0.33333333       0.33333333       0.00000000 </v>
   <v>      -0.33333333       0.33333333       0.00000000 </v>
  </varray>
  <varray name="weights" >
   <v>       0.03703704 </v>
   <v>       0.29629630 </v>
   <v>       0.22222222 </v>
   <v>       0.44444444 </v>
  </varray>
 </kpoints>
 <parameters>
  <separator name="general" >
   <i type="string" name="SYSTEM">phonon of Zr bcc - omiga</i>
   <i type="logical" name="LCOMPAT"> F  </i>
  </separator>
  <separator name="electronic" >
   <i type="string" name="PREC">h</i>
   <i name="ENMAX">    459.93125000</i>
   <i name="ENAUG">    703.44300000</i>
   <i name="EDIFF">      0.00000100</i>
   <i type="int" name="IALGO">    38</i>
   <i type="int" name="IWAVPR">    11</i>
   <i type="int" name="NBANDS">   648</i>
   <i name="NELECT">   1024.00000000</i>
   <i type="int" name="TURBO">     0</i>
   <i type="int" name="IRESTART">     0</i>
   <i type="int" name="NREBOOT">     0</i>
   <i type="int" name="NMIN">     0</i>
   <i name="EREF">      0.00000000</i>
   <separator name="electronic smearing" >
    <i type="int" name="ISMEAR">     1</i>
    <i name="SIGMA">      0.20000000</i>
    <i name="KSPACING">      0.50000000</i>
    <i type="logical" name="KGAMMA"> T  </i>
   </separator>
   <separator name="electronic projectors" >
    <i type="logical" name="LREAL"> T  </i>
    <v name="ROPT">     -0.00040000</v>
    <i type="int" name="LMAXPAW">  -100</i>
    <i type="int" name="LMAXMIX">     2</i>
    <i type="logical" name="NLSPLINE"> F  </i>
   </separator>
   <separator name="electronic startup" >
    <i type="int" name="ISTART">     0</i>
    <i type="int" name="ICHARG">     2</i>
    <i type="int" name="INIWAV">     1</i>
   </separator>
   <separator name="electronic spin" >
    <i type="int" name="ISPIN">     2</i>
    <i type="logical" name="LNONCOLLINEAR"> F  </i>
    <v name="MAGMOM">      1.00000000      1.00000000      1.00000000      1.00000000      1.00000000      1.00000000      1.00000000      1.00000000      1.00000000      1.00000000      1.00000000      1.00000000      1.00000000      1.00000000      1.00000000      1.00000000      1.00000000      1.00000000      1.00000000      1.00000000
      1.00000000      1.00000000      1.00000000      1.00000000      1.00000000      1.00000000      1.00000000      1.00000000      1.00000000      1.00000000      1.00000000      1.00000000      1.00000000      1.00000000      1.00000000      1.00000000      1.00000000      1.00000000      1.00000000      1.00000000
      1.00000000      1.00000000      1.00000000      1.00000000      1.00000000      1.00000000      1.00000000      1.00000000      1.00000000      1.00000000      1.00000000      1.00000000      1.00000000      1.00000000      1.00000000      1.00000000      1.00000000      1.00000000      1.00000000      1.00000000
      1.00000000      1.00000000      1.00000000      1.00000000</v>
    <i name="NUPDOWN">     -1.00000000</i>
    <i type="logical" name="LSORBIT"> F  </i>
    <v name="SAXIS">      0.00000000      0.00000000      1.00000000</v>
    <i type="logical" name="LSPIRAL"> F  </i>
    <v name="QSPIRAL">      0.00000000      0.00000000      0.00000000</v>
    <i type="logical" name="LZEROZ"> F  </i>
   </separator>
   <separator name="electronic exchange-correlation" >
    <i type="logical" name="LASPH"> F  </i>
    <i type="logical" name="LMETAGGA"> F  </i>
   </separator>
   <separator name="electronic convergence" >
    <i type="int" name="NELM">    60</i>
    <i type="int" name="NELMDL">     0</i>
    <i type="int" name="NELMIN">     2</i>
    <i name="ENINI">    459.93125000</i>
    <separator name="electronic convergence detail" >
     <i type="logical" name="LDIAG"> T  </i>
     <i type="logical" name="LSUBROT"> F  </i>
     <i name="WEIMIN">      0.00100000</i>
     <i name="EBREAK">      0.00000000</i>
     <i name="DEPER">      0.30000000</i>
     <i type="int" name="NRMM">     4</i>
     <i name="TIME">      0.40000000</i>
    </separator>
   </separator>
   <separator name="electronic mixer" >
    <i name="AMIX">      0.40000000</i>
    <i name="BMIX">      1.00000000</i>
    <i name="AMIN">      0.10000000</i>
    <i name="AMIX_MAG">      1.60000000</i>
    <i name="BMIX_MAG">      1.00000000</i>
    <separator name="electronic mixer details" >
     <i type="int" name="IMIX">     4</i>
     <i type="logical" name="MIXFIRST"> F  </i>
     <i type="int" name="MAXMIX">   -45</i>
     <i name="WC">    100.00000000</i>
     <i type="int" name="INIMIX">     1</i>
     <i type="int" name="MIXPRE">     1</i>
     <i type="int" name="MREMOVE">     5</i>
    </separator>
   </separator>
   <separator name="electronic dipolcorrection" >
    <i type="logical" name="LDIPOL"> F  </i>
    <i type="logical" name="LMONO"> F  </i>
    <i type="int" name="IDIPOL">     0</i>
    <i name="EPSILON">      1.00000000</i>
    <v name="DIPOL">   -100.00000000   -100.00000000   -100.00000000</v>
    <i name="EFIELD">      0.00000000</i>
   </separator>
  </separator>
  <separator name="grids" >
   <i type="int" name="NGX">    80</i>
   <i type="int" name="NGY">    80</i>
   <i type="int" name="NGZ">    80</i>
   <i type="int" name="NGXF">   126</i>
   <i type="int" name="NGYF">   126</i>
   <i type="int" name="NGZF">   126</i>
   <i type="logical" name="ADDGRID"> F  </i>
  </separator>
  <separator name="ionic" >
   <i type="int" name="NSW">   805</i>
   <i type="int" name="IBRION">     6</i>
   <i type="int" name="ISIF">     2</i>
   <i name="PSTRESS">      0.00000000</i>
   <i name="EDIFFG">      0.00001000</i>
   <i type="int" name="NFREE">     2</i>
   <i name="POTIM">      0.50000000</i>
   <i name="SMASS">     -3.00000000</i>
   <i name="SCALEE">      1.00000000</i>
  </separator>
  <separator name="ionic md" >
   <i name="TEBEG">      0.00010000</i>
   <i name="TEEND">      0.00010000</i>
   <i type="int" name="NBLOCK">     1</i>
   <i type="int" name="KBLOCK">     1</i>
   <i type="int" name="NPACO">   256</i>
   <i name="APACO">     16.00000000</i>
  </separator>
  <separator name="symmetry" >
   <i type="int" name="ISYM">     2</i>
   <i name="SYMPREC">      0.00001000</i>
  </separator>
  <separator name="dos" >
   <i type="logical" name="LORBIT"> F  </i>
   <v name="RWIGS">     -1.00000000</v>
   <i type="int" name="NEDOS">   301</i>
   <i name="EMIN">     10.00000000</i>
   <i name="EMAX">    -10.00000000</i>
   <i name="EFERMI">      0.00000000</i>
  </separator>
  <separator name="writing" >
   <i type="int" name="NWRITE">     0</i>
   <i type="logical" name="LWAVE"> T  </i>
   <i type="logical" name="LCHARG"> T  </i>
   <i type="logical" name="LPARD"> F  </i>
   <i type="logical" name="LVTOT"> F  </i>
   <i type="logical" name="LVHAR"> F  </i>
   <i type="logical" name="LELF"> F  </i>
   <i type="logical" name="LOPTICS"> F  </i>
   <v name="STM">      0.00000000      0.00000000      0.00000000      0.00000000      0.00000000      0.00000000      0.00000000</v>
  </separator>
  <separator name="performance" >
   <i type="int" name="NPAR">     4</i>
   <i type="int" name="NSIM">     4</i>
   <i type="int" name="NBLK">    -1</i>
   <i type="logical" name="LPLANE"> T  </i>
   <i type="logical" name="LSCALAPACK"> T  </i>
   <i type="logical" name="LSCAAWARE"> F  </i>
   <i type="logical" name="LSCALU"> F  </i>
   <i type="logical" name="LASYNC"> F  </i>
   <i type="logical" name="LORBITALREAL"> F  </i>
  </separator>
  <separator name="miscellaneous" >
   <i type="int" name="IDIOT">     3</i>
   <i type="logical" name="LMUSIC"> F  </i>
   <v name="POMASS">     58.69000000</v>
   <v name="DARWINR">      0.00000000</v>
   <v name="DARWINV">      1.00000000</v>
   <i type="logical" name="LCORR"> T  </i>
  </separator>
  <i type="logical" name="GGA_COMPAT"> T  </i>
  <i type="logical" name="LBERRY"> F  </i>
  <i type="int" name="ICORELEVEL">     0</i>
  <i type="logical" name="LDAU"> F  </i>
  <i type="int" name="I_CONSTRAINED_M">     0</i>
  <separator name="electronic exchange-correlation" >
   <i type="string" name="GGA">--</i>
   <i type="int" name="VOSKOWN">     0</i>
   <i type="logical" name="LHFCALC"> F  </i>
   <i type="string" name="PRECFOCK"></i>
   <i type="logical" name="LSYMGRAD"> F  </i>
   <i type="logical" name="LHFONE"> F  </i>
   <i type="logical" name="LRHFCALC"> F  </i>
   <i type="logical" name="LTHOMAS"> F  </i>
   <i type="logical" name="LMODELHF"> F  </i>
   <i name="ENCUT4O">     -1.00000000</i>
   <i type="int" name="EXXOEP">     0</i>
   <i type="int" name="FOURORBIT">     0</i>
   <i name="AEXX">      0.00000000</i>
   <i name="HFALPHA">      0.00000000</i>
   <i name="MCALPHA">      0.00000000</i>
   <i name="ALDAX">      1.00000000</i>
   <i name="AGGAX">      1.00000000</i>
   <i name="ALDAC">      1.00000000</i>
   <i name="AGGAC">      1.00000000</i>
   <i type="int" name="NKREDX">     1</i>
   <i type="int" name="NKREDY">     1</i>
   <i type="int" name="NKREDZ">     1</i>
   <i type="logical" name="SHIFTRED"> F  </i>
   <i type="logical" name="ODDONLY"> F  </i>
   <i type="logical" name="EVENONLY"> F  </i>
   <i type="int" name="LMAXFOCK">     0</i>
   <i type="int" name="NMAXFOCKAE">     0</i>
   <i type="logical" name="LFOCKAEDFT"> F  </i>
   <i name="HFSCREEN">      0.00000000</i>
   <i name="HFSCREENC">      0.00000000</i>
   <i type="int" name="NBANDSGWLOW">     0</i>
  </separator>
  <separator name="vdW DFT" >
   <i type="logical" name="LUSE_VDW"> F  </i>
   <i name="Zab_VDW">     -0.84910000</i>
   <i name="PARAM1">      0.12340000</i>
   <i name="PARAM2">      1.00000000</i>
   <i name="PARAM3">      0.00000000</i>
  </separator>
  <separator name="model GW" >
   <i type="int" name="MODEL_GW">     0</i>
   <i name="MODEL_EPS0">      7.82503374</i>
   <i name="MODEL_ALPHA">      1.00000000</i>
  </separator>
  <separator name="linear response parameters" >
   <i type="logical" name="LEPSILON"> F  </i>
   <i type="logical" name="LRPA"> F  </i>
   <i type="logical" name="LNABLA"> F  </i>
   <i type="logical" name="LVEL"> F  </i>
   <i type="int" name="KINTER">     0</i>
   <i name="CSHIFT">      0.10000000</i>
   <i name="OMEGAMAX">     -1.00000000</i>
   <i name="DEG_THRESHOLD">      0.00200000</i>
  </separator>
  <separator name="orbital magnetization" >
   <i type="logical" name="NUCIND"> F  </i>
   <v name="MAGPOS">      0.00000000      0.00000000      0.00000000</v>
   <i type="logical" name="LNICSALL"> T  </i>
   <i type="logical" name="ORBITALMAG"> F  </i>
   <i type="logical" name="LMAGBLOCH"> F  </i>
   <i type="logical" name="LCHIMAG"> F  </i>
   <i type="logical" name="LGAUGE"> T  </i>
   <i type="int" name="MAGATOM">     0</i>
   <v name="MAGDIPOL">      0.00000000      0.00000000      0.00000000</v>
   <v name="AVECCONST">      0.00000000      0.00000000      0.00000000</v>
  </separator>
  <separator name="response functions" >
   <i type="logical" name="LADDER"> F  </i>
   <i type="logical" name="LFXC"> F  </i>
   <i type="logical" name="LHARTREE"> T  </i>
   <i type="int" name="IBSE">     0</i>
   <v type="int" name="KPOINT">    -1     0     0     0</v>
   <i type="logical" name="LTCTE"> F  </i>
   <i type="logical" name="LTETE"> F  </i>
   <i type="logical" name="LTRIPLET"> F  </i>
   <i type="logical" name="LFXCEPS"> F  </i>
   <i type="logical" name="LFXHEG"> F  </i>
   <i type="int" name="NATURALO">     0</i>
   <i type="logical" name="L2ORDER"> F  </i>
   <i type="logical" name="LUSEW"> F  </i>
   <i name="ENCUTGW">     -2.00000000</i>
   <i name="ENCUTGWSOFT">     -2.00000000</i>
   <i name="ENCUTLF">     -1.00000000</i>
   <i type="int" name="LMAXMP2">    -1</i>
   <i name="SCISSOR">      0.00000000</i>
   <i type="int" name="NOMEGA">     0</i>
   <i type="int" name="NOMEGAR">     0</i>
   <i type="int" name="NBANDSGW">    -1</i>
   <i type="int" name="NBANDSO">    -1</i>
   <i type="int" name="NBANDSV">    -1</i>
   <i type="int" name="NELM">     1</i>
   <i type="int" name="NELMHF">     1</i>
   <i type="int" name="DIM">     3</i>
   <i type="int" name="ANTIRES">     0</i>
   <i name="OMEGAMAX">    -30.00000000</i>
   <i name="OMEGAMIN">    -30.00000000</i>
   <i name="OMEGATL">   -200.00000000</i>
   <i type="int" name="OMEGAGRID">     0</i>
   <i name="CSHIFT">     -0.10000000</i>
   <i type="logical" name="SELFENERGY"> F  </i>
   <i type="logical" name="LSPECTRAL"> F  </i>
   <i type="logical" name="LSPECTRALGW"> F  </i>
   <i type="logical" name="LSINGLES"> F  </i>
   <i type="logical" name="LFERMIGW"> F  </i>
   <i type="logical" name="ODDONLYGW"> F  </i>
   <i type="logical" name="EVENONLYGW"> F  </i>
   <i type="int" name="NKREDLFX">     1</i>
   <i type="int" name="NKREDLFY">     1</i>
   <i type="int" name="NKREDLFZ">     1</i>
   <i type="int" name="MAXMEM">  1800</i>
   <i type="int" name="TELESCOPE">     0</i>
   <i type="int" name="TAUPAR">     1</i>
   <i type="int" name="OMEGAPAR">    -1</i>
   <i name="LAMBDA">      1.00000000</i>
  </separator>
  <separator name="External order field" >
   <i name="OFIELD_KAPPA">      0.00000000</i>
   <v name="OFIELD_K">      0.00000000      0.00000000      0.00000000</v>
   <i name="OFIELD_Q6_NEAR">      0.00000000</i>
   <i name="OFIELD_Q6_FAR">      0.00000000</i>
   <i name="OFIELD_A">      0.00000000</i>
  </separator>
 </parameters>
 <atominfo>
  <atoms>      64 </atoms>
  <types>       1 </types>
  <array name="atoms" >
   <dimension dim="1">ion</dimension>
   <field type="string">element</field>
   <field type="int">atomtype</field>
   <set>
    <rc><c>Ni</c><c>   1</c></rc>
    <rc><c>Ni</c><c>   1</c></rc>
    <rc><c>Ni</c><c>   1</c></rc>
    <rc><c>Ni</c><c>   1</c></rc>
    <rc><c>Ni</c><c>   1</c></rc>
    <rc><c>Ni</c><c>   1</c></rc>
    <rc><c>Ni</c><c>   1</c></rc>
    <rc><c>Ni</c><c>   1</c></rc>
    <rc><c>Ni</c><c>   1</c></rc>
    <rc><c>Ni</c><c>   1</c></rc>
    <rc><c>Ni</c><c>   1</c></rc>
    <rc><c>Ni</c><c>   1</c></rc>
    <rc><c>Ni</c><c>   1</c></rc>
    <rc><c>Ni</c><c>   1</c></rc>
    <rc><c>Ni</c><c>   1</c></rc>
    <rc><c>Ni</c><c>   1</c></rc>
    <rc><c>Ni</c><c>   1</c></rc>
    <rc><c>Ni</c><c>   1</c></rc>
    <rc><c>Ni</c><c>   1</c></rc>
    <rc><c>Ni</c><c>   1</c></rc>
    <rc><c>Ni</c><c>   1</c></rc>
    <rc><c>Ni</c><c>   1</c></rc>
    <rc><c>Ni</c><c>   1</c></rc>
    <rc><c>Ni</c><c>   1</c></rc>
    <rc><c>Ni</c><c>   1</c></rc>
    <rc><c>Ni</c><c>   1</c></rc>
    <rc><c>Ni</c><c>   1</c></rc>
    <rc><c>Ni</c><c>   1</c></rc>
    <rc><c>Ni</c><c>   1</c></rc>
    <rc><c>Ni</c><c>   1</c></rc>
    <rc><c>Ni</c><c>   1</c></rc>
    <rc><c>Ni</c><c>   1</c></rc>
    <rc><c>Ni</c><c>   1</c></rc>
    <rc><c>Ni</c><c>   1</c></rc>
    <rc><c>Ni</c><c>   1</c></rc>
    <rc><c>Ni</c><c>   1</c></rc>
    <rc><c>Ni</c><c>   1</c></rc>
    <rc><c>Ni</c><c>   1</c></rc>
    <rc><c>Ni</c><c>   1</c></rc>
    <rc><c>Ni</c><c>   1</c></rc>
    <rc><c>Ni</c><c>   1</c></rc>
    <rc><c>Ni</c><c>   1</c></rc>
    <rc><c>Ni</c><c>   1</c></rc>
    <rc><c>Ni</c><c>   1</c></rc>
    <rc><c>Ni</c><c>   1</c></rc>
    <rc><c>Ni</c><c>   1</c></rc>
    <rc><c>Ni</c><c>   1</c></rc>
    <rc><c>Ni</c><c>   1</c></rc>
    <rc><c>Ni</c><c>   1</c></rc>
    <rc><c>Ni</c><c>   1</c></rc>
    <rc><c>Ni</c><c>   1</c></rc>
    <rc><c>Ni</c><c>   1</c></rc>
    <rc><c>Ni</c><c>   1</c></rc>
    <rc><c>Ni</c><c>   1</c></rc>
    <rc><c>Ni</c><c>   1</c></rc>
    <rc><c>Ni</c><c>   1</c></rc>
    <rc><c>Ni</c><c>   1</c></rc>
    <rc><c>Ni</c><c>   1</c></rc>
    <rc><c>Ni</c><c>   1</c></rc>
    <rc><c>Ni</c><c>   1</c></rc>
    <rc><c>Ni</c><c>   1</c></rc>
    <rc><c>Ni</c><c>   1</c></rc>
    <rc><c>Ni</c><c>   1</c></rc>
    <rc><c>Ni</c><c>   1</c></rc>
   </set>
  </array>
  <array name="atomtypes" >
   <dimension dim="1">type</dimension>
   <field type="int">atomspertype</field>
   <field type="string">element</field>
   <field>mass</field>
   <field>valence</field>
   <field type="string">pseudopotential</field>
   <set>
    <rc><c>  64</c><c>Ni</c><c>     58.69000000</c><c>     16.00000000</c><c> PAW_PBE Ni_pv 06Sep2000                </c></rc>
   </set>
  </array>
 </atominfo>
 <structure name="initialpos" >
  <crystal>
   <varray name="basis" >
    <v>       0.00000000       7.47300000       7.47300000 </v>
    <v>       7.47300000       0.00000000       7.47300000 </v>
    <v>       7.47300000       7.47300000       0.00000000 </v>
   </varray>
   <i name="volume">    834.67026563 </i>
   <varray name="rec_basis" >
    <v>      -0.06690753       0.06690753       0.06690753 </v>
    <v>       0.06690753      -0.06690753       0.06690753 </v>
    <v>       0.06690753       0.06690753      -0.06690753 </v>
   </varray>
  </crystal>
  <varray name="positions" >
   <v>       0.00000000       0.00000000       0.00000000 </v>
   <v>       0.00000000       0.00000000       0.25000000 </v>
   <v>       0.00000000       0.00000000       0.50000000 </v>
   <v>       0.00000000       0.00000000       0.75000000 </v>
   <v>       0.00000000       0.25000000       0.00000000 </v>
   <v>       0.00000000       0.25000000       0.25000000 </v>
   <v>       0.00000000       0.25000000       0.50000000 </v>
   <v>       0.00000000       0.25000000       0.75000000 </v>
   <v>       0.00000000       0.50000000       0.00000000 </v>
   <v>       0.00000000       0.50000000       0.25000000 </v>
   <v>       0.00000000       0.50000000       0.50000000 </v>
   <v>       0.00000000       0.50000000       0.75000000 </v>
   <v>       0.00000000       0.75000000       0.00000000 </v>
   <v>       0.00000000       0.75000000       0.25000000 </v>
   <v>       0.00000000       0.75000000       0.50000000 </v>
   <v>       0.00000000       0.75000000       0.75000000 </v>
   <v>       0.25000000       0.00000000       0.00000000 </v>
   <v>       0.25000000       0.00000000       0.25000000 </v>
   <v>       0.25000000       0.00000000       0.50000000 </v>
   <v>       0.25000000       0.00000000       0.75000000 </v>
   <v>       0.25000000       0.25000000       0.00000000 </v>
   <v>       0.25000000       0.25000000       0.25000000 </v>
   <v>       0.25000000       0.25000000       0.50000000 </v>
   <v>       0.25000000       0.25000000       0.75000000 </v>
   <v>       0.25000000       0.50000000       0.00000000 </v>
   <v>       0.25000000       0.50000000       0.25000000 </v>
   <v>       0.25000000       0.50000000       0.50000000 </v>
   <v>       0.25000000       0.50000000       0.75000000 </v>
   <v>       0.25000000       0.75000000       0.00000000 </v>
   <v>       0.25000000       0.75000000       0.25000000 </v>
   <v>       0.25000000       0.75000000       0.50000000 </v>
   <v>       0.25000000       0.75000000       0.75000000 </v>
   <v>       0.50000000       0.00000000       0.00000000 </v>
   <v>       0.50000000       0.00000000       0.25000000 </v>
   <v>       0.50000000       0.00000000       0.50000000 </v>
   <v>       0.50000000       0.00000000       0.75000000 </v>
   <v>       0.50000000       0.25000000       0.00000000 </v>
   <v>       0.50000000       0.25000000       0.25000000 </v>
   <v>       0.50000000       0.25000000       0.50000000 </v>
   <v>       0.50000000       0.25000000       0.75000000 </v>
   <v>       0.50000000       0.50000000       0.00000000 </v>
   <v>       0.50000000       0.50000000       0.25000000 </v>
   <v>       0.50000000       0.50000000       0.50000000 </v>
   <v>       0.50000000       0.50000000       0.75000000 </v>
   <v>       0.50000000       0.75000000       0.00000000 </v>
   <v>       0.50000000       0.75000000       0.25000000 </v>
   <v>       0.50000000       0.75000000       0.50000000 </v>
   <v>       0.50000000       0.75000000       0.75000000 </v>
   <v>       0.75000000       0.00000000       0.00000000 </v>
   <v>       0.75000000       0.00000000       0.25000000 </v>
   <v>       0.75000000       0.00000000       0.50000000 </v>
   <v>       0.75000000       0.00000000       0.75000000 </v>
   <v>       0.75000000       0.25000000       0.00000000 </v>
   <v>       0.75000000       0.25000000       0.25000000 </v>
   <v>       0.75000000       0.25000000       0.50000000 </v>
   <v>       0.75000000       0.25000000       0.75000000 </v>
   <v>       0.75000000       0.50000000       0.00000000 </v>
   <v>       0.75000000       0.50000000       0.25000000 </v>
   <v>       0.75000000       0.50000000       0.50000000 </v>
   <v>       0.75000000       0.50000000       0.75000000 </v>
   <v>       0.75000000       0.75000000       0.00000000 </v>
   <v>       0.75000000       0.75000000       0.25000000 </v>
   <v>       0.75000000       0.75000000       0.50000000 </v>
   <v>       0.75000000       0.75000000       0.75000000 </v>
  </varray>
 </structure>
 <calculation>
  <scstep>
   <time name="dav">  205.11  204.95</time>
   <time name="total">  205.83  205.67</time>
   <energy>
    <i name="alphaZ">   8266.97428417 </i>
    <i name="ewald">-144746.26977675 </i>
    <i name="hartreedc"> -67168.00643193 </i>
    <i name="XCdc">   5681.51835869 </i>
    <i name="pawpsdc"> 172361.15642774 </i>
    <i name="pawaedc">-181272.45834873 </i>
    <i name="eentropy">     -0.00201364 </i>
    <i name="bandstr">  -1906.01938347 </i>
    <i name="atom"> 224016.65216645 </i>
    <i name="e_fr_energy">  15233.54528255 </i>
    <i name="e_wo_entrp">  15233.54729619 </i>
    <i name="e_0_energy">  15233.54595377 </i>
   </energy>
  </scstep>
  <scstep>
   <time name="dav">  184.15  184.00</time>
   <time name="total">  184.15  184.00</time>
   <energy>
    <i name="e_fr_energy">    957.93648083 </i>
    <i name="e_wo_entrp">    957.96358720 </i>
    <i name="e_0_energy">    957.94551629 </i>
   </energy>
  </scstep>
  <scstep>
   <time name="dav">  186.77  186.62</time>
   <time name="total">  186.77  186.62</time>
   <energy>
    <i name="e_fr_energy">   -342.05482136 </i>
    <i name="e_wo_entrp">   -342.22172372 </i>
    <i name="e_0_energy">   -342.11045548 </i>
   </energy>
  </scstep>
  <scstep>
   <time name="dav">  210.00  209.84</time>
   <time name="total">  210.01  209.84</time>
   <energy>
    <i name="e_fr_energy">   -418.43470477 </i>
    <i name="e_wo_entrp">   -418.60137992 </i>
    <i name="e_0_energy">   -418.49026315 </i>
   </energy>
  </scstep>
  <scstep>
   <time name="dav">  218.79  218.62</time>
   <time name="total">  233.79  233.60</time>
   <energy>
    <i name="e_fr_energy">   -419.78549815 </i>
    <i name="e_wo_entrp">   -419.95272902 </i>
    <i name="e_0_energy">   -419.84124177 </i>
   </energy>
  </scstep>
  <scstep>
   <time name="dav">  216.57  216.39</time>
   <time name="total">  231.94  231.76</time>
   <energy>
    <i name="e_fr_energy">   -401.72517243 </i>
    <i name="e_wo_entrp">   -401.19778292 </i>
    <i name="e_0_energy">   -401.54937593 </i>
   </energy>
  </scstep>
  <scstep>
   <time name="dav">  216.66  216.52</time>
   <time name="total">  232.24  232.09</time>
   <energy>
    <i name="e_fr_energy">   -359.06835773 </i>
    <i name="e_wo_entrp">   -358.96204157 </i>
    <i name="e_0_energy">   -359.03291901 </i>
   </energy>
  </scstep>
  <scstep>
   <time name="dav">  216.85  216.75</time>
   <time name="total">  232.34  232.24</time>
   <energy>
    <i name="e_fr_energy">   -359.29417801 </i>
    <i name="e_wo_entrp">   -359.20663184 </i>
    <i name="e_0_energy">   -359.26499595 </i>
   </energy>
  </scstep>
  <scstep>
   <time name="dav">  221.35  221.27</time>
   <time name="total">  236.87  236.77</time>
   <energy>
    <i name="e_fr_energy">   -359.18056745 </i>
    <i name="e_wo_entrp">   -359.08592566 </i>
    <i name="e_0_energy">   -359.14902019 </i>
   </energy>
  </scstep>
  <scstep>
   <time name="dav">  230.08  230.07</time>
   <time name="total">  245.68  245.68</time>
   <energy>
    <i name="e_fr_energy">   -359.18723183 </i>
    <i name="e_wo_entrp">   -359.09358920 </i>
    <i name="e_0_energy">   -359.15601762 </i>
   </energy>
  </scstep>
  <scstep>
   <time name="dav">  219.37  219.89</time>
   <time name="total">  234.86  235.38</time>
   <energy>
    <i name="e_fr_energy">   -359.19093832 </i>
    <i name="e_wo_entrp">   -359.09840480 </i>
    <i name="e_0_energy">   -359.16009381 </i>
   </energy>
  </scstep>
  <scstep>
   <time name="dav">  222.66  222.52</time>
   <time name="total">  238.24  238.09</time>
   <energy>
    <i name="e_fr_energy">   -359.19101042 </i>
    <i name="e_wo_entrp">   -359.09705645 </i>
    <i name="e_0_energy">   -359.15969243 </i>
   </energy>
  </scstep>
  <scstep>
   <time name="dav">  226.16  226.60</time>
   <time name="total">  241.90  242.33</time>
   <energy>
    <i name="e_fr_energy">   -359.19101103 </i>
    <i name="e_wo_entrp">   -359.09686836 </i>
    <i name="e_0_energy">   -359.15963014 </i>
   </energy>
  </scstep>
  <scstep>
   <time name="dav">  174.66  174.55</time>
   <time name="total">  190.13  190.03</time>
   <energy>
    <i name="e_fr_energy">   -359.19099295 </i>
    <i name="e_wo_entrp">   -359.09693109 </i>
    <i name="e_0_energy">   -359.15963899 </i>
   </energy>
  </scstep>
  <scstep>
   <time name="dav">  164.00  163.90</time>
   <time name="total">  179.47  179.36</time>
   <energy>
    <i name="e_fr_energy">   -359.19098511 </i>
    <i name="e_wo_entrp">   -359.09699176 </i>
    <i name="e_0_energy">   -359.15965400 </i>
   </energy>
  </scstep>
  <scstep>
   <time name="dav">  134.56  134.60</time>
   <time name="total">  135.37  135.41</time>
   <energy>
    <i name="alphaZ">   8266.97428417 </i>
    <i name="ewald">-144746.26977675 </i>
    <i name="hartreedc"> -64899.78407727 </i>
    <i name="XCdc">   5598.55887539 </i>
    <i name="pawpsdc"> 170257.47351910 </i>
    <i name="pawaedc">-179290.12516822 </i>
    <i name="eentropy">     -0.09398985 </i>
    <i name="bandstr"> -19562.57681861 </i>
    <i name="atom"> 224016.65216645 </i>
    <i name="e_fr_energy">   -359.19098558 </i>
    <i name="e_wo_entrp">   -359.09699573 </i>
    <i name="e_0_energy">   -359.15965563 </i>
   </energy>
  </scstep>
  <structure>
   <crystal>
    <varray name="basis" >
     <v>       0.00000000       7.47300000       7.47300000 </v>
     <v>       7.47300000       0.00000000       7.47300000 </v>
     <v>       7.47300000       7.47300000       0.00000000 </v>
    </varray>
    <i name="volume">    834.67026563 </i>
    <varray name="rec_basis" >
     <v>      -0.06690753       0.06690753       0.06690753 </v>
     <v>       0.06690753      -0.06690753       0.06690753 </v>
     <v>       0.06690753       0.06690753      -0.06690753 </v>
    </varray>
   </crystal>
   <varray name="positions" >
    <v>       0.00000000       0.00000000       0.00000000 </v>
    <v>       0.00000000       0.00000000       0.25000000 </v>
    <v>       0.00000000       0.00000000       0.50000000 </v>
    <v>       0.00000000       0.00000000       0.75000000 </v>
    <v>       0.00000000       0.25000000       0.00000000 </v>
    <v>       0.00000000       0.25000000       0.25000000 </v>
    <v>       0.00000000       0.25000000       0.50000000 </v>
    <v>       0.00000000       0.25000000       0.75000000 </v>
    <v>       0.00000000       0.50000000       0.00000000 </v>
    <v>       0.00000000       0.50000000       0.25000000 </v>
    <v>       0.00000000       0.50000000       0.50000000 </v>
    <v>       0.00000000       0.50000000       0.75000000 </v>
    <v>       0.00000000       0.75000000       0.00000000 </v>
    <v>       0.00000000       0.75000000       0.25000000 </v>
    <v>       0.00000000       0.75000000       0.50000000 </v>
    <v>       0.00000000       0.75000000       0.75000000 </v>
    <v>       0.25000000       0.00000000       0.00000000 </v>
    <v>       0.25000000       0.00000000       0.25000000 </v>
    <v>       0.25000000       0.00000000       0.50000000 </v>
    <v>       0.25000000       0.00000000       0.75000000 </v>
    <v>       0.25000000       0.25000000       0.00000000 </v>
    <v>       0.25000000       0.25000000       0.25000000 </v>
    <v>       0.25000000       0.25000000       0.50000000 </v>
    <v>       0.25000000       0.25000000       0.75000000 </v>
    <v>       0.25000000       0.50000000       0.00000000 </v>
    <v>       0.25000000       0.50000000       0.25000000 </v>
    <v>       0.25000000       0.50000000       0.50000000 </v>
    <v>       0.25000000       0.50000000       0.75000000 </v>
    <v>       0.25000000       0.75000000       0.00000000 </v>
    <v>       0.25000000       0.75000000       0.25000000 </v>
    <v>       0.25000000       0.75000000       0.50000000 </v>
    <v>       0.25000000       0.75000000       0.75000000 </v>
    <v>       0.50000000       0.00000000       0.00000000 </v>
    <v>       0.50000000       0.00000000       0.25000000 </v>
    <v>       0.50000000       0.00000000       0.50000000 </v>
    <v>       0.50000000       0.00000000       0.75000000 </v>
    <v>       0.50000000       0.25000000       0.00000000 </v>
    <v>       0.50000000       0.25000000       0.25000000 </v>
    <v>       0.50000000       0.25000000       0.50000000 </v>
    <v>       0.50000000       0.25000000       0.75000000 </v>
    <v>       0.50000000       0.50000000       0.00000000 </v>
    <v>       0.50000000       0.50000000       0.25000000 </v>
    <v>       0.50000000       0.50000000       0.50000000 </v>
    <v>       0.50000000       0.50000000       0.75000000 </v>
    <v>       0.50000000       0.75000000       0.00000000 </v>
    <v>       0.50000000       0.75000000       0.25000000 </v>
    <v>       0.50000000       0.75000000       0.50000000 </v>
    <v>       0.50000000       0.75000000       0.75000000 </v>
    <v>       0.75000000       0.00000000       0.00000000 </v>
    <v>       0.75000000       0.00000000       0.25000000 </v>
    <v>       0.75000000       0.00000000       0.50000000 </v>
    <v>       0.75000000       0.00000000       0.75000000 </v>
    <v>       0.75000000       0.25000000       0.00000000 </v>
    <v>       0.75000000       0.25000000       0.25000000 </v>
    <v>       0.75000000       0.25000000       0.50000000 </v>
    <v>       0.75000000       0.25000000       0.75000000 </v>
    <v>       0.75000000       0.50000000       0.00000000 </v>
    <v>       0.75000000       0.50000000       0.25000000 </v>
    <v>       0.75000000       0.50000000       0.50000000 </v>
    <v>       0.75000000       0.50000000       0.75000000 </v>
    <v>       0.75000000       0.75000000       0.00000000 </v>
    <v>       0.75000000       0.75000000       0.25000000 </v>
    <v>       0.75000000       0.75000000       0.50000000 </v>
    <v>       0.75000000       0.75000000       0.75000000 </v>
   </varray>
  </structure>
  <varray name="forces" >
   <v>      -0.00000000       0.00000000      -0.00000000 </v>
   <v>      -0.00000000       0.00000000       0.00000000 </v>
   <v>      -0.00000000       0.00000000      -0.00000000 </v>
   <v>       0.00000000       0.00000000       0.00000000 </v>
   <v>      -0.00000000      -0.00000000       0.00000000 </v>
   <v>      -0.00000000      -0.00000000       0.00000000 </v>
   <v>       0.00000000       0.00000000      -0.00000000 </v>
   <v>       0.00000000       0.00000000       0.00000000 </v>
   <v>      -0.00000000      -0.00000000      -0.00000000 </v>
   <v>       0.00000000      -0.00000000       0.00000000 </v>
   <v>       0.00000000       0.00000000       0.00000000 </v>
   <v>       0.00000000      -0.00000000      -0.00000000 </v>
   <v>      -0.00000000      -0.00000000      -0.00000000 </v>
   <v>      -0.00000000      -0.00000000       0.00000000 </v>
   <v>       0.00000000      -0.00000000      -0.00000000 </v>
   <v>       0.00000000      -0.00000000      -0.00000000 </v>
   <v>      -0.00000000      -0.00000000       0.00000000 </v>
   <v>      -0.00000000      -0.00000000      -0.00000000 </v>
   <v>      -0.00000000      -0.00000000      -0.00000000 </v>
   <v>       0.00000000       0.00000000       0.00000000 </v>
   <v>       0.00000000      -0.00000000       0.00000000 </v>
   <v>      -0.00000000      -0.00000000      -0.00000000 </v>
   <v>       0.00000000       0.00000000      -0.00000000 </v>
   <v>       0.00000000       0.00000000      -0.00000000 </v>
   <v>      -0.00000000       0.00000000      -0.00000000 </v>
   <v>       0.00000000      -0.00000000      -0.00000000 </v>
   <v>       0.00000000       0.00000000       0.00000000 </v>
   <v>       0.00000000       0.00000000      -0.00000000 </v>
   <v>      -0.00000000      -0.00000000      -0.00000000 </v>
   <v>      -0.00000000       0.00000000       0.00000000 </v>
   <v>       0.00000000       0.00000000      -0.00000000 </v>
   <v>      -0.00000000      -0.00000000      -0.00000000 </v>
   <v>      -0.00000000      -0.00000000       0.00000000 </v>
   <v>      -0.00000000      -0.00000000      -0.00000000 </v>
   <v>      -0.00000000       0.00000000      -0.00000000 </v>
   <v>       0.00000000       0.00000000       0.00000000 </v>
   <v>      -0.00000000      -0.00000000       0.00000000 </v>
   <v>      -0.00000000      -0.00000000      -0.00000000 </v>
   <v>      -0.00000000       0.00000000       0.00000000 </v>
   <v>       0.00000000       0.00000000      -0.00000000 </v>
   <v>      -0.00000000      -0.00000000      -0.00000000 </v>
   <v>       0.00000000      -0.00000000       0.00000000 </v>
   <v>       0.00000000       0.00000000       0.00000000 </v>
   <v>      -0.00000000       0.00000000      -0.00000000 </v>
   <v>      -0.00000000      -0.00000000       0.00000000 </v>
   <v>       0.00000000       0.00000000       0.00000000 </v>
   <v>       0.00000000      -0.00000000       0.00000000 </v>
   <v>       0.00000000       0.00000000       0.00000000 </v>
   <v>      -0.00000000      -0.00000000       0.00000000 </v>
   <v>      -0.00000000       0.00000000       0.00000000 </v>
   <v>       0.00000000      -0.00000000      -0.00000000 </v>
   <v>      -0.00000000       0.00000000       0.00000000 </v>
   <v>      -0.00000000       0.00000000       0.00000000 </v>
   <v>      -0.00000000       0.00000000      -0.00000000 </v>
   <v>       0.00000000       0.00000000      -0.00000000 </v>
   <v>       0.00000000      -0.00000000      -0.00000000 </v>
   <v>      -0.00000000       0.00000000       0.00000000 </v>
   <v>       0.00000000      -0.00000000       0.00000000 </v>
   <v>       0.00000000       0.00000000       0.00000000 </v>
   <v>      -0.00000000      -0.00000000      -0.00000000 </v>
   <v>      -0.00000000      -0.00000000       0.00000000 </v>
   <v>      -0.00000000       0.00000000      -0.00000000 </v>
   <v>       0.00000000      -0.00000000      -0.00000000 </v>
   <v>       0.00000000       0.00000000      -0.00000000 </v>
  </varray>
  <varray name="stress" >
   <v>    -233.60195922       0.00000000       0.00000000 </v>
   <v>       0.00000000    -233.60195922      -0.00000000 </v>
   <v>       0.00000000       0.00000000    -233.60195922 </v>
  </varray>
  <energy>
   <i name="e_fr_energy">   -359.19098558 </i>
   <i name="e_wo_entrp">   -359.15965563 </i>
   <i name="e_0_energy">     -0.09398985 </i>
  </energy>
  <kpoints>
   <generation param="Gamma">
    <v type="int" name="divisions">       3        3        3 </v>
    <v name="usershift">      0.00000000       0.00000000       0.00000000 </v>
    <v name="genvec1">      0.33333333       0.00000000       0.00000000 </v>
    <v name="genvec2">      0.00000000       0.33333333       0.00000000 </v>
    <v name="genvec3">      0.00000000       0.00000000       0.33333333 </v>
    <v name="shift">      0.00000000       0.00000000       0.00000000 </v>
   </generation>
   <varray name="kpointlist" >
    <v>       0.00000000       0.00000000       0.00000000 </v>
    <v>       0.33333333       0.00000000       0.00000000 </v>
    <v>       0.33333333       0.33333333       0.00000000 </v>
    <v>      -0.33333333       0.33333333       0.00000000 </v>
    <v>       0.00000000       0.33333333       0.33333333 </v>
    <v>      -0.33333333       0.33333333       0.33333333 </v>
   </varray>
   <varray name="weights" >
    <v>       0.03703704 </v>
    <v>       0.29629630 </v>
    <v>       0.14814815 </v>
    <v>       0.29629630 </v>
    <v>       0.07407407 </v>
    <v>       0.14814815 </v>
   </varray>
  </kpoints>
  <time name="totalsc"> 3704.30 3705.56</time>
 </calculation>
 <calculation>
  <scstep>
   <time name="dav">  408.29  408.09</time>
   <time name="total">  429.37  429.16</time>
   <energy>
    <i name="alphaZ">   8266.97428417 </i>
    <i name="ewald">-144746.13866061 </i>
    <i name="hartreedc"> -64899.90700806 </i>
    <i name="XCdc">   5598.55928844 </i>
    <i name="pawpsdc"> 170257.28053593 </i>
    <i name="pawaedc">-179289.93959076 </i>
    <i name="eentropy">     -0.09396081 </i>
    <i name="bandstr"> -19562.48103964 </i>
    <i name="atom"> 224016.65216645 </i>
    <i name="e_fr_energy">   -359.09398487 </i>
    <i name="e_wo_entrp">   -359.00002406 </i>
    <i name="e_0_energy">   -359.06266460 </i>
   </energy>
  </scstep>
  <scstep>
   <time name="dav">  331.44  332.25</time>
   <time name="total">  351.44  352.26</time>
   <energy>
    <i name="e_fr_energy">   -359.19068828 </i>
    <i name="e_wo_entrp">   -359.09674901 </i>
    <i name="e_0_energy">   -359.15937519 </i>
   </energy>
  </scstep>
  <scstep>
   <time name="dav">  404.63  404.89</time>
   <time name="total">  425.64  425.89</time>
   <energy>
    <i name="e_fr_energy">   -359.19468186 </i>
    <i name="e_wo_entrp">   -359.10068831 </i>
    <i name="e_0_energy">   -359.16335068 </i>
   </energy>
  </scstep>
  <scstep>
   <time name="dav">  372.73  372.65</time>
   <time name="total">  393.55  393.46</time>
   <energy>
    <i name="e_fr_energy">   -359.19273980 </i>
    <i name="e_wo_entrp">   -359.09879331 </i>
    <i name="e_0_energy">   -359.16142431 </i>
   </energy>
  </scstep>
  <scstep>
   <time name="dav">  353.15  353.02</time>
   <time name="total">  374.16  374.01</time>
   <energy>
    <i name="e_fr_energy">   -359.19078451 </i>
    <i name="e_wo_entrp">   -359.09679753 </i>
    <i name="e_0_energy">   -359.15945552 </i>
   </energy>
  </scstep>
  <scstep>
   <time name="dav">  412.06  412.61</time>
   <time name="total">  433.02  433.56</time>
   <energy>
    <i name="e_fr_energy">   -359.19077688 </i>
    <i name="e_wo_entrp">   -359.09678908 </i>
    <i name="e_0_energy">   -359.15944761 </i>
   </energy>
  </scstep>
  <scstep>
   <time name="dav">  358.05  358.02</time>
   <time name="total">  378.96  378.92</time>
   <energy>
    <i name="e_fr_energy">   -359.19072050 </i>
    <i name="e_wo_entrp">   -359.09673151 </i>
    <i name="e_0_energy">   -359.15939084 </i>
   </energy>
  </scstep>
  <scstep>
   <time name="dav">  356.08  355.96</time>
   <time name="total">  377.16  377.02</time>
   <energy>
    <i name="e_fr_energy">   -359.19069947 </i>
    <i name="e_wo_entrp">   -359.09670995 </i>
    <i name="e_0_energy">   -359.15936963 </i>
   </energy>
  </scstep>
  <scstep>
   <time name="dav">  358.07  357.83</time>
   <time name="total">  379.12  378.88</time>
   <energy>
    <i name="e_fr_energy">   -359.19070701 </i>
    <i name="e_wo_entrp">   -359.09672243 </i>
    <i name="e_0_energy">   -359.15937882 </i>
   </energy>
  </scstep>
  <scstep>
   <time name="dav">  411.59  411.39</time>
   <time name="total">  432.49  432.26</time>
   <energy>
    <i name="e_fr_energy">   -359.19057393 </i>
    <i name="e_wo_entrp">   -359.09659098 </i>
    <i name="e_0_energy">   -359.15924628 </i>
   </energy>
  </scstep>
  <scstep>
   <time name="dav">  446.57  447.25</time>
   <time name="total">  467.49  468.17</time>
   <energy>
    <i name="e_fr_energy">   -359.19057893 </i>
    <i name="e_wo_entrp">   -359.09659665 </i>
    <i name="e_0_energy">   -359.15925150 </i>
   </energy>
  </scstep>
  <scstep>
   <time name="dav">  365.62  365.57</time>
   <time name="total">  386.59  386.54</time>
   <energy>
    <i name="e_fr_energy">   -359.19057170 </i>
    <i name="e_wo_entrp">   -359.09658932 </i>
    <i name="e_0_energy">   -359.15924424 </i>
   </energy>
  </scstep>
  <scstep>
   <time name="dav">  340.94  340.72</time>
   <time name="total">  361.85  361.61</time>
   <energy>
    <i name="e_fr_energy">   -359.19056963 </i>
    <i name="e_wo_entrp">   -359.09658784 </i>
    <i name="e_0_energy">   -359.15924237 </i>
   </energy>
  </scstep>
  <scstep>
   <time name="dav">  217.51  217.43</time>
   <time name="total">  218.31  218.23</time>
   <energy>
    <i name="alphaZ">   8266.97428417 </i>
    <i name="ewald">-144746.13866061 </i>
    <i name="hartreedc"> -64899.89128177 </i>
    <i name="XCdc">   5598.55852333 </i>
    <i name="pawpsdc"> 170257.09417084 </i>
    <i name="pawaedc">-179289.75389504 </i>
    <i name="eentropy">     -0.09398349 </i>
    <i name="bandstr"> -19562.59189408 </i>
    <i name="atom"> 224016.65216645 </i>
    <i name="e_fr_energy">   -359.19057019 </i>
    <i name="e_wo_entrp">   -359.09658670 </i>
    <i name="e_0_energy">   -359.15924236 </i>
   </energy>
  </scstep>
  <structure>
   <crystal>
    <varray name="basis" >
     <v>       0.00000000       7.47300000       7.47300000 </v>
     <v>       7.47300000       0.00000000       7.47300000 </v>
     <v>       7.47300000       7.47300000       0.00000000 </v>
    </varray>
    <i name="volume">    834.67026563 </i>
    <varray name="rec_basis" >
     <v>      -0.06690753       0.06690753       0.06690753 </v>
     <v>       0.06690753      -0.06690753       0.06690753 </v>
     <v>       0.06690753       0.06690753      -0.06690753 </v>
    </varray>
   </crystal>
   <varray name="positions" >
    <v>      -0.00100361       0.00100361       0.00100361 </v>
    <v>       0.00000000       0.00000000       0.25000000 </v>
    <v>       0.00000000       0.00000000       0.50000000 </v>
    <v>       0.00000000       0.00000000       0.75000000 </v>
    <v>       0.00000000       0.25000000       0.00000000 </v>
    <v>       0.00000000       0.25000000       0.25000000 </v>
    <v>       0.00000000       0.25000000       0.50000000 </v>
    <v>       0.00000000       0.25000000       0.75000000 </v>
    <v>       0.00000000       0.50000000       0.00000000 </v>
    <v>       0.00000000       0.50000000       0.25000000 </v>
    <v>       0.00000000       0.50000000       0.50000000 </v>
    <v>       0.00000000       0.50000000       0.75000000 </v>
    <v>       0.00000000       0.75000000       0.00000000 </v>
    <v>       0.00000000       0.75000000       0.25000000 </v>
    <v>       0.00000000       0.75000000       0.50000000 </v>
    <v>       0.00000000       0.75000000       0.75000000 </v>
    <v>       0.25000000       0.00000000       0.00000000 </v>
    <v>       0.25000000       0.00000000       0.25000000 </v>
    <v>       0.25000000       0.00000000       0.50000000 </v>
    <v>       0.25000000       0.00000000       0.75000000 </v>
    <v>       0.25000000       0.25000000       0.00000000 </v>
    <v>       0.25000000       0.25000000       0.25000000 </v>
    <v>       0.25000000       0.25000000       0.50000000 </v>
    <v>       0.25000000       0.25000000       0.75000000 </v>
    <v>       0.25000000       0.50000000       0.00000000 </v>
    <v>       0.25000000       0.50000000       0.25000000 </v>
    <v>       0.25000000       0.50000000       0.50000000 </v>
    <v>       0.25000000       0.50000000       0.75000000 </v>
    <v>       0.25000000       0.75000000       0.00000000 </v>
    <v>       0.25000000       0.75000000       0.25000000 </v>
    <v>       0.25000000       0.75000000       0.50000000 </v>
    <v>       0.25000000       0.75000000       0.75000000 </v>
    <v>       0.50000000       0.00000000       0.00000000 </v>
    <v>       0.50000000       0.00000000       0.25000000 </v>
    <v>       0.50000000       0.00000000       0.50000000 </v>
    <v>       0.50000000       0.00000000       0.75000000 </v>
    <v>       0.50000000       0.25000000       0.00000000 </v>
    <v>       0.50000000       0.25000000       0.25000000 </v>
    <v>       0.50000000       0.25000000       0.50000000 </v>
    <v>       0.50000000       0.25000000       0.75000000 </v>
    <v>       0.50000000       0.50000000       0.00000000 </v>
    <v>       0.50000000       0.50000000       0.25000000 </v>
    <v>       0.50000000       0.50000000       0.50000000 </v>
    <v>       0.50000000       0.50000000       0.75000000 </v>
    <v>       0.50000000       0.75000000       0.00000000 </v>
    <v>       0.50000000       0.75000000       0.25000000 </v>
    <v>       0.50000000       0.75000000       0.50000000 </v>
    <v>       0.50000000       0.75000000       0.75000000 </v>
    <v>       0.75000000       0.00000000       0.00000000 </v>
    <v>       0.75000000       0.00000000       0.25000000 </v>
    <v>       0.75000000       0.00000000       0.50000000 </v>
    <v>       0.75000000       0.00000000       0.75000000 </v>
    <v>       0.75000000       0.25000000       0.00000000 </v>
    <v>       0.75000000       0.25000000       0.25000000 </v>
    <v>       0.75000000       0.25000000       0.50000000 </v>
    <v>       0.75000000       0.25000000       0.75000000 </v>
    <v>       0.75000000       0.50000000       0.00000000 </v>
    <v>       0.75000000       0.50000000       0.25000000 </v>
    <v>       0.75000000       0.50000000       0.50000000 </v>
    <v>       0.75000000       0.50000000       0.75000000 </v>
    <v>       0.75000000       0.75000000       0.00000000 </v>
    <v>       0.75000000       0.75000000       0.25000000 </v>
    <v>       0.75000000       0.75000000       0.50000000 </v>
    <v>       0.75000000       0.75000000       0.75000000 </v>
   </varray>
  </structure>
  <varray name="forces" >
   <v>      -0.05762320       0.00000000       0.00000000 </v>
   <v>       0.00588434       0.00585718       0.00000000 </v>
   <v>       0.00016543       0.00013788       0.00000000 </v>
   <v>       0.00542708       0.00535015       0.00000000 </v>
   <v>       0.00588434       0.00000000       0.00585718 </v>
   <v>       0.00083759       0.00051234       0.00051234 </v>
   <v>       0.00020129       0.00048796      -0.00026025 </v>
   <v>       0.00079666       0.00001398      -0.00001398 </v>
   <v>       0.00016543       0.00000000       0.00013788 </v>
   <v>       0.00020129      -0.00026025       0.00048796 </v>
   <v>       0.00000240       0.00000000       0.00000000 </v>
   <v>       0.00020440      -0.00024836       0.00055031 </v>
   <v>       0.00542708       0.00000000       0.00535015 </v>
   <v>       0.00079666      -0.00001398       0.00001398 </v>
   <v>       0.00020440       0.00055031      -0.00024836 </v>
   <v>       0.00076570       0.00051756       0.00051756 </v>
   <v>       0.00079666      -0.00001398      -0.00001398 </v>
   <v>       0.00020440       0.00055031       0.00024836 </v>
   <v>       0.00076570       0.00051756      -0.00051756 </v>
   <v>       0.00542708       0.00000000      -0.00535015 </v>
   <v>       0.00020440       0.00024836       0.00055031 </v>
   <v>       0.00012812       0.00000000       0.00000000 </v>
   <v>       0.00020129       0.00026025      -0.00048796 </v>
   <v>      -0.00061145       0.00000000       0.00003189 </v>
   <v>       0.00076570      -0.00051756       0.00051756 </v>
   <v>       0.00020129      -0.00048796       0.00026025 </v>
   <v>      -0.00019846       0.00000011       0.00000011 </v>
   <v>      -0.00006954       0.00000000      -0.00008749 </v>
   <v>       0.00542708      -0.00535015       0.00000000 </v>
   <v>      -0.00061145       0.00003189       0.00000000 </v>
   <v>      -0.00006954      -0.00008749       0.00000000 </v>
   <v>       0.00139566       0.00000000       0.00000000 </v>
   <v>       0.00000240       0.00000000       0.00000000 </v>
   <v>       0.00020440      -0.00024836      -0.00055031 </v>
   <v>       0.00016543       0.00000000      -0.00013788 </v>
   <v>       0.00020129      -0.00026025      -0.00048796 </v>
   <v>       0.00020440      -0.00055031      -0.00024836 </v>
   <v>       0.00083759      -0.00051234      -0.00051234 </v>
   <v>      -0.00008410       0.00000000       0.00008498 </v>
   <v>      -0.00019846      -0.00000011       0.00000011 </v>
   <v>       0.00016543      -0.00013788       0.00000000 </v>
   <v>      -0.00008410       0.00008498       0.00000000 </v>
   <v>      -0.00034607       0.00000000       0.00000000 </v>
   <v>      -0.00006954       0.00008749       0.00000000 </v>
   <v>       0.00020129      -0.00048796      -0.00026025 </v>
   <v>      -0.00019846       0.00000011      -0.00000011 </v>
   <v>      -0.00006954       0.00000000       0.00008749 </v>
   <v>       0.00076570      -0.00051756      -0.00051756 </v>
   <v>       0.00079666       0.00001398       0.00001398 </v>
   <v>       0.00588434       0.00000000      -0.00585718 </v>
   <v>       0.00083759       0.00051234      -0.00051234 </v>
   <v>       0.00020129       0.00048796       0.00026025 </v>
   <v>       0.00588434      -0.00585718       0.00000000 </v>
   <v>       0.00141405       0.00000000       0.00000000 </v>
   <v>      -0.00008410      -0.00008498       0.00000000 </v>
   <v>      -0.00061145      -0.00003189       0.00000000 </v>
   <v>       0.00083759      -0.00051234       0.00051234 </v>
   <v>      -0.00008410       0.00000000      -0.00008498 </v>
   <v>      -0.00019846      -0.00000011      -0.00000011 </v>
   <v>       0.00020440      -0.00055031       0.00024836 </v>
   <v>       0.00020129       0.00026025       0.00048796 </v>
   <v>      -0.00061145       0.00000000      -0.00003189 </v>
   <v>       0.00020440       0.00024836      -0.00055031 </v>
   <v>       0.00012812       0.00000000       0.00000000 </v>
  </varray>
  <varray name="stress" >
   <v>    -233.55414320       0.00000000       0.00000000 </v>
   <v>       0.00000000    -233.55451638       0.00000000 </v>
   <v>       0.00000000       0.00000000    -233.55451638 </v>
  </varray>
  <energy>
   <i name="e_fr_energy">   -359.19057019 </i>
   <i name="e_wo_entrp">   -359.15924236 </i>
   <i name="e_0_energy">     -0.09398349 </i>
  </energy>
  <kpoints>
   <generation param="Gamma">
    <v type="int" name="divisions">       3        3        3 </v>
    <v name="usershift">      0.00000000       0.00000000       0.00000000 </v>
    <v name="genvec1">      0.33333333       0.00000000       0.00000000 </v>
    <v name="genvec2">      0.00000000       0.33333333       0.00000000 </v>
    <v name="genvec3">      0.00000000       0.00000000       0.33333333 </v>
    <v name="shift">      0.00000000       0.00000000       0.00000000 </v>
   </generation>
   <varray name="kpointlist" >
    <v>       0.00000000       0.00000000       0.00000000 </v>
    <v>       0.33333333       0.00000000       0.00000000 </v>
    <v>       0.33333333       0.33333333       0.00000000 </v>
    <v>      -0.33333333       0.33333333       0.00000000 </v>
    <v>       0.00000000       0.33333333       0.33333333 </v>
    <v>      -0.33333333       0.33333333       0.33333333 </v>
   </varray>
   <varray name="weights" >
    <v>       0.03703704 </v>
    <v>       0.29629630 </v>
    <v>       0.14814815 </v>
    <v>       0.29629630 </v>
    <v>       0.07407407 </v>
    <v>       0.14814815 </v>
   </varray>
  </kpoints>
  <time name="totalsc"> 5804.77 5805.39</time>
 </calculation>
 <calculation>
  <scstep>
   <time name="dav">  407.74  408.07</time>
   <time name="total">  428.48  428.78</time>
   <energy>
    <i name="alphaZ">   8266.97428417 </i>
    <i name="ewald">-144746.13866061 </i>
    <i name="hartreedc"> -64899.93232764 </i>
    <i name="XCdc">   5598.56085450 </i>
    <i name="pawpsdc"> 170257.09234337 </i>
    <i name="pawaedc">-179289.75218353 </i>
    <i name="eentropy">     -0.09387538 </i>
    <i name="bandstr"> -19562.20154389 </i>
    <i name="atom"> 224016.65216645 </i>
    <i name="e_fr_energy">   -358.83894256 </i>
    <i name="e_wo_entrp">   -358.74506717 </i>
    <i name="e_0_energy">   -358.80765076 </i>
   </energy>
  </scstep>
  <scstep>
   <time name="dav">  326.91  326.84</time>
   <time name="total">  347.86  347.77</time>
   <energy>
    <i name="e_fr_energy">   -359.21138241 </i>
    <i name="e_wo_entrp">   -359.11815429 </i>
    <i name="e_0_energy">   -359.18030637 </i>
   </energy>
  </scstep>
  <scstep>
   <time name="dav">  386.75  386.51</time>
   <time name="total">  407.75  407.51</time>
   <energy>
    <i name="e_fr_energy">   -359.19626379 </i>
    <i name="e_wo_entrp">   -359.10213072 </i>
    <i name="e_0_energy">   -359.16488610 </i>
   </energy>
  </scstep>
  <scstep>
   <time name="dav">  382.35  382.13</time>
   <time name="total">  403.31  403.08</time>
   <energy>
    <i name="e_fr_energy">   -359.20640840 </i>
    <i name="e_wo_entrp">   -359.11267825 </i>
    <i name="e_0_energy">   -359.17516501 </i>
   </energy>
  </scstep>
  <scstep>
   <time name="dav">  344.11  344.66</time>
   <time name="total">  365.09  365.62</time>
   <energy>
    <i name="e_fr_energy">   -359.19155942 </i>
    <i name="e_wo_entrp">   -359.09753472 </i>
    <i name="e_0_energy">   -359.16021786 </i>
   </energy>
  </scstep>
  <scstep>
   <time name="dav">  397.09  396.85</time>
   <time name="total">  418.09  417.83</time>
   <energy>
    <i name="e_fr_energy">   -359.19124294 </i>
    <i name="e_wo_entrp">   -359.09722703 </i>
    <i name="e_0_energy">   -359.15990430 </i>
   </energy>
  </scstep>
  <scstep>
   <time name="dav">  358.08  357.88</time>
   <time name="total">  379.17  378.95</time>
   <energy>
    <i name="e_fr_energy">   -359.19114630 </i>
    <i name="e_wo_entrp">   -359.09713364 </i>
    <i name="e_0_energy">   -359.15980875 </i>
   </energy>
  </scstep>
  <scstep>
   <time name="dav">  349.15  348.90</time>
   <time name="total">  369.85  369.59</time>
   <energy>
    <i name="e_fr_energy">   -359.19095615 </i>
    <i name="e_wo_entrp">   -359.09695426 </i>
    <i name="e_0_energy">   -359.15962219 </i>
   </energy>
  </scstep>
  <scstep>
   <time name="dav">  350.63  350.38</time>
   <time name="total">  371.36  371.09</time>
   <energy>
    <i name="e_fr_energy">   -359.19105435 </i>
    <i name="e_wo_entrp">   -359.09706074 </i>
    <i name="e_0_energy">   -359.15972315 </i>
   </energy>
  </scstep>
  <scstep>
   <time name="dav">  386.05  386.07</time>
   <time name="total">  406.70  406.70</time>
   <energy>
    <i name="e_fr_energy">   -359.19065864 </i>
    <i name="e_wo_entrp">   -359.09669011 </i>
    <i name="e_0_energy">   -359.15933580 </i>
   </energy>
  </scstep>
  <scstep>
   <time name="dav">  413.24  412.98</time>
   <time name="total">  434.35  434.08</time>
   <energy>
    <i name="e_fr_energy">   -359.19058160 </i>
    <i name="e_wo_entrp">   -359.09661070 </i>
    <i name="e_0_energy">   -359.15925797 </i>
   </energy>
  </scstep>
  <scstep>
   <time name="dav">  416.70  416.41</time>
   <time name="total">  437.63  437.32</time>
   <energy>
    <i name="e_fr_energy">   -359.19060151 </i>
    <i name="e_wo_entrp">   -359.09662176 </i>
    <i name="e_0_energy">   -359.15927493 </i>
   </energy>
  </scstep>
  <scstep>
   <time name="dav">  364.26  364.03</time>
   <time name="total">  385.43  385.19</time>
   <energy>
    <i name="e_fr_energy">   -359.19056987 </i>
    <i name="e_wo_entrp">   -359.09658346 </i>
    <i name="e_0_energy">   -359.15924106 </i>
   </energy>
  </scstep>
  <scstep>
   <time name="dav">  398.28  398.06</time>
   <time name="total">  419.01  418.78</time>
   <energy>
    <i name="e_fr_energy">   -359.19057938 </i>
    <i name="e_wo_entrp">   -359.09659745 </i>
    <i name="e_0_energy">   -359.15925207 </i>
   </energy>
  </scstep>
  <scstep>
   <time name="dav">  346.68  346.47</time>
   <time name="total">  367.38  367.15</time>
   <energy>
    <i name="e_fr_energy">   -359.19057001 </i>
    <i name="e_wo_entrp">   -359.09658882 </i>
    <i name="e_0_energy">   -359.15924294 </i>
   </energy>
  </scstep>
  <scstep>
   <time name="dav">  216.61  216.48</time>
   <time name="total">  217.40  217.27</time>
   <energy>
    <i name="alphaZ">   8266.97428417 </i>
    <i name="ewald">-144746.13866061 </i>
    <i name="hartreedc"> -64899.89861761 </i>
    <i name="XCdc">   5598.55878796 </i>
    <i name="pawpsdc"> 170257.10323688 </i>
    <i name="pawaedc">-179289.76577763 </i>
    <i name="eentropy">     -0.09398093 </i>
    <i name="bandstr"> -19562.58200865 </i>
    <i name="atom"> 224016.65216645 </i>
    <i name="e_fr_energy">   -359.19056998 </i>
    <i name="e_wo_entrp">   -359.09658905 </i>
    <i name="e_0_energy">   -359.15924300 </i>
   </energy>
  </scstep>
  <structure>
   <crystal>
    <varray name="basis" >
     <v>       0.00000000       7.47300000       7.47300000 </v>
     <v>       7.47300000       0.00000000       7.47300000 </v>
     <v>       7.47300000       7.47300000       0.00000000 </v>
    </varray>
    <i name="volume">    834.67026563 </i>
    <varray name="rec_basis" >
     <v>      -0.06690753       0.06690753       0.06690753 </v>
     <v>       0.06690753      -0.06690753       0.06690753 </v>
     <v>       0.06690753       0.06690753      -0.06690753 </v>
    </varray>
   </crystal>
   <varray name="positions" >
    <v>       0.00100361      -0.00100361      -0.00100361 </v>
    <v>       0.00000000       0.00000000       0.25000000 </v>
    <v>       0.00000000       0.00000000       0.50000000 </v>
    <v>       0.00000000       0.00000000       0.75000000 </v>
    <v>       0.00000000       0.25000000       0.00000000 </v>
    <v>       0.00000000       0.25000000       0.25000000 </v>
    <v>       0.00000000       0.25000000       0.50000000 </v>
    <v>       0.00000000       0.25000000       0.75000000 </v>
    <v>       0.00000000       0.50000000       0.00000000 </v>
    <v>       0.00000000       0.50000000       0.25000000 </v>
    <v>       0.00000000       0.50000000       0.50000000 </v>
    <v>       0.00000000       0.50000000       0.75000000 </v>
    <v>       0.00000000       0.75000000       0.00000000 </v>
    <v>       0.00000000       0.75000000       0.25000000 </v>
    <v>       0.00000000       0.75000000       0.50000000 </v>
    <v>       0.00000000       0.75000000       0.75000000 </v>
    <v>       0.25000000       0.00000000       0.00000000 </v>
    <v>       0.25000000       0.00000000       0.25000000 </v>
    <v>       0.25000000       0.00000000       0.50000000 </v>
    <v>       0.25000000       0.00000000       0.75000000 </v>
    <v>       0.25000000       0.25000000       0.00000000 </v>
    <v>       0.25000000       0.25000000       0.25000000 </v>
    <v>       0.25000000       0.25000000       0.50000000 </v>
    <v>       0.25000000       0.25000000       0.75000000 </v>
    <v>       0.25000000       0.50000000       0.00000000 </v>
    <v>       0.25000000       0.50000000       0.25000000 </v>
    <v>       0.25000000       0.50000000       0.50000000 </v>
    <v>       0.25000000       0.50000000       0.75000000 </v>
    <v>       0.25000000       0.75000000       0.00000000 </v>
    <v>       0.25000000       0.75000000       0.25000000 </v>
    <v>       0.25000000       0.75000000       0.50000000 </v>
    <v>       0.25000000       0.75000000       0.75000000 </v>
    <v>       0.50000000       0.00000000       0.00000000 </v>
    <v>       0.50000000       0.00000000       0.25000000 </v>
    <v>       0.50000000       0.00000000       0.50000000 </v>
    <v>       0.50000000       0.00000000       0.75000000 </v>
    <v>       0.50000000       0.25000000       0.00000000 </v>
    <v>       0.50000000       0.25000000       0.25000000 </v>
    <v>       0.50000000       0.25000000       0.50000000 </v>
    <v>       0.50000000       0.25000000       0.75000000 </v>
    <v>       0.50000000       0.50000000       0.00000000 </v>
    <v>       0.50000000       0.50000000       0.25000000 </v>
    <v>       0.50000000       0.50000000       0.50000000 </v>
    <v>       0.50000000       0.50000000       0.75000000 </v>
    <v>       0.50000000       0.75000000       0.00000000 </v>
    <v>       0.50000000       0.75000000       0.25000000 </v>
    <v>       0.50000000       0.75000000       0.50000000 </v>
    <v>       0.50000000       0.75000000       0.75000000 </v>
    <v>       0.75000000       0.00000000       0.00000000 </v>
    <v>       0.75000000       0.00000000       0.25000000 </v>
    <v>       0.75000000       0.00000000       0.50000000 </v>
    <v>       0.75000000       0.00000000       0.75000000 </v>
    <v>       0.75000000       0.25000000       0.00000000 </v>
    <v>       0.75000000       0.25000000       0.25000000 </v>
    <v>       0.75000000       0.25000000       0.50000000 </v>
    <v>       0.75000000       0.25000000       0.75000000 </v>
    <v>       0.75000000       0.50000000       0.00000000 </v>
    <v>       0.75000000       0.50000000       0.25000000 </v>
    <v>       0.75000000       0.50000000       0.50000000 </v>
    <v>       0.75000000       0.50000000       0.75000000 </v>
    <v>       0.75000000       0.75000000       0.00000000 </v>
    <v>       0.75000000       0.75000000       0.25000000 </v>
    <v>       0.75000000       0.75000000       0.50000000 </v>
    <v>       0.75000000       0.75000000       0.75000000 </v>
   </varray>
  </structure>
  <varray name="forces" >
   <v>       0.05818693       0.00000000      -0.00000000 </v>
   <v>      -0.00555677      -0.00553844      -0.00000000 </v>
   <v>      -0.00024663      -0.00011871      -0.00000000 </v>
   <v>      -0.00605266      -0.00612202      -0.00000000 </v>
   <v>      -0.00555677      -0.00000000      -0.00553844 </v>
   <v>      -0.00084415      -0.00046818      -0.00046818 </v>
   <v>      -0.00022242      -0.00053838       0.00024790 </v>
   <v>      -0.00060256      -0.00000315       0.00000315 </v>
   <v>      -0.00024663       0.00000000      -0.00011871 </v>
   <v>      -0.00022242       0.00024790      -0.00053838 </v>
   <v>       0.00014430       0.00000000      -0.00000000 </v>
   <v>      -0.00016503       0.00019384      -0.00046844 </v>
   <v>      -0.00605266       0.00000000      -0.00612202 </v>
   <v>      -0.00060256       0.00000315      -0.00000315 </v>
   <v>      -0.00016503      -0.00046844       0.00019384 </v>
   <v>      -0.00091491      -0.00053421      -0.00053421 </v>
   <v>      -0.00060256       0.00000315       0.00000315 </v>
   <v>      -0.00016503      -0.00046844      -0.00019384 </v>
   <v>      -0.00091491      -0.00053421       0.00053421 </v>
   <v>      -0.00605266       0.00000000       0.00612202 </v>
   <v>      -0.00016503      -0.00019384      -0.00046844 </v>
   <v>      -0.00028258       0.00000000      -0.00000000 </v>
   <v>      -0.00022242      -0.00024790       0.00053838 </v>
   <v>       0.00070741       0.00000000       0.00005624 </v>
   <v>      -0.00091491       0.00053421      -0.00053421 </v>
   <v>      -0.00022242       0.00053838      -0.00024790 </v>
   <v>       0.00030917      -0.00001545      -0.00001545 </v>
   <v>       0.00008573       0.00000000       0.00004066 </v>
   <v>      -0.00605266       0.00612202      -0.00000000 </v>
   <v>       0.00070741       0.00005624      -0.00000000 </v>
   <v>       0.00008573       0.00004066      -0.00000000 </v>
   <v>      -0.00153585       0.00000000      -0.00000000 </v>
   <v>       0.00014430      -0.00000000      -0.00000000 </v>
   <v>      -0.00016503       0.00019384       0.00046844 </v>
   <v>      -0.00024663       0.00000000       0.00011871 </v>
   <v>      -0.00022242       0.00024790       0.00053838 </v>
   <v>      -0.00016503       0.00046844       0.00019384 </v>
   <v>      -0.00084415       0.00046818       0.00046818 </v>
   <v>       0.00006216       0.00000000      -0.00008446 </v>
   <v>       0.00030917       0.00001545      -0.00001545 </v>
   <v>      -0.00024663       0.00011871      -0.00000000 </v>
   <v>       0.00006216      -0.00008446      -0.00000000 </v>
   <v>       0.00042574       0.00000000      -0.00000000 </v>
   <v>       0.00008573      -0.00004066      -0.00000000 </v>
   <v>      -0.00022242       0.00053838       0.00024790 </v>
   <v>       0.00030917      -0.00001545       0.00001545 </v>
   <v>       0.00008573       0.00000000      -0.00004066 </v>
   <v>      -0.00091491       0.00053421       0.00053421 </v>
   <v>      -0.00060256      -0.00000315      -0.00000315 </v>
   <v>      -0.00555677       0.00000000       0.00553844 </v>
   <v>      -0.00084415      -0.00046818       0.00046818 </v>
   <v>      -0.00022242      -0.00053838      -0.00024790 </v>
   <v>      -0.00555677       0.00553844      -0.00000000 </v>
   <v>      -0.00148780       0.00000000      -0.00000000 </v>
   <v>       0.00006216       0.00008446      -0.00000000 </v>
   <v>       0.00070741      -0.00005624      -0.00000000 </v>
   <v>      -0.00084415       0.00046818      -0.00046818 </v>
   <v>       0.00006216       0.00000000       0.00008446 </v>
   <v>       0.00030917       0.00001545       0.00001545 </v>
   <v>      -0.00016503       0.00046844      -0.00019384 </v>
   <v>      -0.00022242      -0.00024790      -0.00053838 </v>
   <v>       0.00070741       0.00000000      -0.00005624 </v>
   <v>      -0.00016503      -0.00019384       0.00046844 </v>
   <v>      -0.00028258       0.00000000      -0.00000000 </v>
  </varray>
  <varray name="stress" >
   <v>    -233.61536024       0.00000000       0.00000000 </v>
   <v>       0.00000000    -233.61287572       0.00000000 </v>
   <v>       0.00000000       0.00000000    -233.61287572 </v>
  </varray>
  <energy>
   <i name="e_fr_energy">   -359.19056998 </i>
   <i name="e_wo_entrp">   -359.15924300 </i>
   <i name="e_0_energy">     -0.09398093 </i>
  </energy>
  <dynmat>
   <varray name="hessian" >
    <v>      -0.06577505       0.00000000       0.00000000       0.00650902       0.00649395       0.00000000       0.00023404       0.00014573       0.00000000       0.00650902       0.00649395       0.00000000       0.00650902       0.00000000       0.00649395       0.00095483       0.00057894       0.00057894       0.00022523       0.00057894      -0.00026988       0.00079470       0.00000000       0.00000000       0.00023404      -0.00000000       0.00014573       0.00022523      -0.00026988       0.00057894      -0.00008059      -0.00000000      -0.00000000       0.00022523      -0.00026988       0.00057894       0.00650902       0.00000000       0.00649395       0.00079470       0.00000000       0.00000000       0.00022523       0.00057894      -0.00026988       0.00095483       0.00057894       0.00057894       0.00079470       0.00000000       0.00000000       0.00022523       0.00057894       0.00026988       0.00095483       0.00057894      -0.00057894       0.00650902       0.00000000      -0.00649395       0.00022523       0.00026988       0.00057894       0.00023326       0.00000000       0.00000000       0.00022523       0.00026988      -0.00057894      -0.00074906       0.00000000       0.00000000       0.00095483      -0.00057894       0.00057894       0.00022523      -0.00057894       0.00026988      -0.00028831      -0.00000000       0.00000000      -0.00008563       0.00000000      -0.00008451       0.00650902      -0.00649395       0.00000000      -0.00074906       0.00000000       0.00000000      -0.00008563      -0.00008451       0.00000000       0.00165655       0.00000000       0.00000000      -0.00008059      -0.00000000      -0.00000000       0.00022523      -0.00026988      -0.00057894       0.00023404      -0.00000000      -0.00014573       0.00022523      -0.00026988      -0.00057894       0.00022523      -0.00057894      -0.00026988       0.00095483      -0.00057894      -0.00057894      -0.00008563      -0.00000000       0.00008451      -0.00028831      -0.00000000       0.00000000       0.00023404      -0.00014573      -0.00000000      -0.00008563       0.00008451       0.00000000      -0.00043835       0.00000000       0.00000000      -0.00008563       0.00008451      -0.00000000       0.00022523      -0.00057894      -0.00026988      -0.00028831      -0.00000000       0.00000000      -0.00008563       0.00000000       0.00008451       0.00095483      -0.00057894      -0.00057894       0.00079470       0.00000000       0.00000000       0.00650902       0.00000000      -0.00649395       0.00095483       0.00057894      -0.00057894       0.00022523       0.00057894       0.00026988       0.00650902      -0.00649395       0.00000000       0.00165655       0.00000000       0.00000000      -0.00008563      -0.00008451      -0.00000000      -0.00074906       0.00000000       0.00000000       0.00095483      -0.00057894       0.00057894      -0.00008563       0.00000000      -0.00008451      -0.00028831       0.00000000      -0.00000000       0.00022523      -0.00057894       0.00026988       0.00022523       0.00026988       0.00057894      -0.00074906       0.00000000       0.00000000       0.00022523       0.00026988      -0.00057894       0.00023326       0.00000000      -0.00000000 </v>
    <v>       0.00000000      -0.06577505       0.00000000       0.00649395       0.00650902       0.00000000       0.00014573       0.00023404       0.00000000       0.00649395       0.00650902       0.00000000       0.00000000       0.00079470       0.00000000       0.00057894       0.00022523       0.00026988       0.00057894       0.00095483      -0.00057894       0.00000000       0.00650902      -0.00649395      -0.00000000      -0.00008059      -0.00000000      -0.00026988       0.00022523      -0.00057894      -0.00000000       0.00023404      -0.00014573      -0.00026988       0.00022523      -0.00057894       0.00000000       0.00079470       0.00000000       0.00000000       0.00650902      -0.00649395       0.00057894       0.00095483      -0.00057894       0.00057894       0.00022523       0.00026988       0.00000000       0.00650902       0.00649395       0.00057894       0.00095483       0.00057894       0.00057894       0.00022523      -0.00026988       0.00000000       0.00079470       0.00000000       0.00026988       0.00022523       0.00057894       0.00000000       0.00023326       0.00000000       0.00026988       0.00022523      -0.00057894       0.00000000      -0.00074906       0.00000000      -0.00057894       0.00022523      -0.00026988      -0.00057894       0.00095483      -0.00057894       0.00000000      -0.00008563       0.00008451       0.00000000      -0.00028831      -0.00000000      -0.00649395       0.00650902       0.00000000       0.00000000       0.00165655       0.00000000      -0.00008451      -0.00008563       0.00000000       0.00000000      -0.00074906      -0.00000000      -0.00000000       0.00023404       0.00014573      -0.00026988       0.00022523       0.00057894      -0.00000000      -0.00008059      -0.00000000      -0.00026988       0.00022523       0.00057894      -0.00057894       0.00095483       0.00057894      -0.00057894       0.00022523       0.00026988       0.00000000      -0.00028831      -0.00000000      -0.00000000      -0.00008563      -0.00008451      -0.00014573       0.00023404      -0.00000000       0.00008451      -0.00008563       0.00000000       0.00000000      -0.00043835      -0.00000000       0.00008451      -0.00008563       0.00000000      -0.00057894       0.00095483       0.00057894      -0.00000000      -0.00008563      -0.00008451      -0.00000000      -0.00028831       0.00000000      -0.00057894       0.00022523       0.00026988       0.00000000       0.00650902       0.00649395       0.00000000       0.00079470       0.00000000       0.00057894       0.00022523      -0.00026988       0.00057894       0.00095483       0.00057894      -0.00649395       0.00650902       0.00000000       0.00000000      -0.00074906      -0.00000000      -0.00008451      -0.00008563       0.00000000       0.00000000       0.00165655       0.00000000      -0.00057894       0.00022523      -0.00026988       0.00000000      -0.00028831      -0.00000000      -0.00000000      -0.00008563       0.00008451      -0.00057894       0.00095483      -0.00057894       0.00026988       0.00022523       0.00057894       0.00000000      -0.00074906       0.00000000       0.00026988       0.00022523      -0.00057894       0.00000000       0.00023326      -0.00000000 </v>
    <v>       0.00000000       0.00000000      -0.06577505       0.00000000       0.00000000       0.00079470       0.00000000       0.00000000      -0.00008059       0.00000000       0.00000000       0.00079470       0.00649395       0.00000000       0.00650902       0.00057894       0.00026988       0.00022523      -0.00026988      -0.00057894       0.00022523       0.00000000      -0.00649395       0.00650902       0.00014573      -0.00000000       0.00023404       0.00057894      -0.00057894       0.00095483      -0.00000000      -0.00014573       0.00023404       0.00057894      -0.00057894       0.00095483       0.00649395       0.00000000       0.00650902       0.00000000      -0.00649395       0.00650902      -0.00026988      -0.00057894       0.00022523       0.00057894       0.00026988       0.00022523       0.00000000       0.00649395       0.00650902       0.00026988       0.00057894       0.00022523      -0.00057894      -0.00026988       0.00022523      -0.00649395       0.00000000       0.00650902       0.00057894       0.00057894       0.00095483      -0.00000000      -0.00000000       0.00023326      -0.00057894      -0.00057894       0.00095483       0.00000000       0.00000000       0.00165655       0.00057894      -0.00026988       0.00022523       0.00026988      -0.00057894       0.00022523      -0.00000000       0.00008451      -0.00008563      -0.00008451      -0.00000000      -0.00008563       0.00000000       0.00000000       0.00079470       0.00000000       0.00000000      -0.00074906      -0.00000000       0.00000000      -0.00028831       0.00000000      -0.00000000      -0.00074906      -0.00000000       0.00014573       0.00023404      -0.00057894       0.00057894       0.00095483      -0.00014573      -0.00000000       0.00023404      -0.00057894       0.00057894       0.00095483      -0.00026988       0.00057894       0.00022523      -0.00057894       0.00026988       0.00022523       0.00008451       0.00000000      -0.00008563       0.00000000      -0.00008451      -0.00008563      -0.00000000      -0.00000000      -0.00008059      -0.00000000       0.00000000      -0.00028831       0.00000000      -0.00000000      -0.00043835       0.00000000       0.00000000      -0.00028831      -0.00026988       0.00057894       0.00022523       0.00000000      -0.00008451      -0.00008563       0.00008451      -0.00000000      -0.00008563      -0.00057894       0.00026988       0.00022523       0.00000000       0.00649395       0.00650902      -0.00649395       0.00000000       0.00650902      -0.00057894      -0.00026988       0.00022523       0.00026988       0.00057894       0.00022523       0.00000000       0.00000000       0.00079470       0.00000000      -0.00000000      -0.00074906       0.00000000       0.00000000      -0.00028831       0.00000000       0.00000000      -0.00074906       0.00057894      -0.00026988       0.00022523      -0.00008451      -0.00000000      -0.00008563       0.00000000       0.00008451      -0.00008563       0.00026988      -0.00057894       0.00022523       0.00057894       0.00057894       0.00095483       0.00000000       0.00000000       0.00165655      -0.00057894      -0.00057894       0.00095483       0.00000000       0.00000000       0.00023326 </v>
[...]
       <r>    19.4804     0.0000   648.0000 </r>
       <r>    19.7586     0.0000   648.0000 </r>
       <r>    20.0369     0.0000   648.0000 </r>
       <r>    20.3151     0.0000   648.0000 </r>
       <r>    20.5934     0.0000   648.0000 </r>
       <r>    20.8716     0.0000   648.0000 </r>
       <r>    21.1499     0.0000   648.0000 </r>
       <r>    21.4281     0.0000   648.0000 </r>
       <r>    21.7064     0.0000   648.0000 </r>
      </set>
      <set comment="spin 2">
       <r>   -61.7685     0.0000     0.0000 </r>
       <r>   -61.4902     0.0000     0.0000 </r>
       <r>   -61.2120     0.0000     0.0000 </r>
       <r>   -60.9337     0.0000     0.0000 </r>
       <r>   -60.6555     0.0000     0.0000 </r>
       <r>   -60.3772     0.0000     0.0000 </r>
       <r>   -60.0990     0.0000     0.0000 </r>
       <r>   -59.8207     0.0000     0.0000 </r>
       <r>   -59.5425     0.0000     0.0000 </r>
       <r>   -59.2642     0.0000     0.0000 </r>
       <r>   -58.9860     0.0000     0.0000 </r>
       <r>   -58.7077    -0.0000    -0.0000 </r>
       <r>   -58.4295    -0.0000    -0.0000 </r>
       <r>   -58.1512    -0.0000    -0.0000 </r>
       <r>   -57.8730    -0.0000    -0.0000 </r>
       <r>   -57.5947    -0.0628    -0.0175 </r>
       <r>   -57.3165   -13.6883    -3.8262 </r>
       <r>   -57.0382   205.6471    53.3950 </r>
       <r>   -56.7600   517.4729   197.3815 </r>
       <r>   -56.4817   -18.3860   192.2656 </r>
       <r>   -56.2035    -0.9542   192.0001 </r>
       <r>   -55.9252    -0.0003   192.0000 </r>
       <r>   -55.6470    -0.0000   192.0000 </r>
       <r>   -55.3687     0.0000   192.0000 </r>
       <r>   -55.0905     0.0000   192.0000 </r>
       <r>   -54.8122     0.0000   192.0000 </r>
       <r>   -54.5340     0.0000   192.0000 </r>
       <r>   -54.2557     0.0000   192.0000 </r>
       <r>   -53.9775     0.0000   192.0000 </r>
       <r>   -53.6992     0.0000   192.0000 </r>
       <r>   -53.4210     0.0000   192.0000 </r>
       <r>   -53.1427     0.0000   192.0000 </r>
       <r>   -52.8645     0.0000   192.0000 </r>
       <r>   -52.5862     0.0000   192.0000 </r>
       <r>   -52.3080     0.0000   192.0000 </r>
       <r>   -52.0297     0.0000   192.0000 </r>
       <r>   -51.7515     0.0000   192.0000 </r>
       <r>   -51.4732     0.0000   192.0000 </r>
       <r>   -51.1950     0.0000   192.0000 </r>
       <r>   -50.9167     0.0000   192.0000 </r>
       <r>   -50.6385     0.0000   192.0000 </r>
       <r>   -50.3602     0.0000   192.0000 </r>
       <r>   -50.0820     0.0000   192.0000 </r>
       <r>   -49.8037     0.0000   192.0000 </r>
       <r>   -49.5255     0.0000   192.0000 </r>
       <r>   -49.2472     0.0000   192.0000 </r>
       <r>   -48.9690     0.0000   192.0000 </r>
       <r>   -48.6907     0.0000   192.0000 </r>
       <r>   -48.4125     0.0000   192.0000 </r>
       <r>   -48.1342     0.0000   192.0000 </r>
       <r>   -47.8560     0.0000   192.0000 </r>
       <r>   -47.5777     0.0000   192.0000 </r>
       <r>   -47.2995     0.0000   192.0000 </r>
       <r>   -47.0212     0.0000   192.0000 </r>
       <r>   -46.7430     0.0000   192.0000 </r>
       <r>   -46.4647     0.0000   192.0000 </r>
       <r>   -46.1865     0.0000   192.0000 </r>
       <r>   -45.9082     0.0000   192.0000 </r>
       <r>   -45.6300     0.0000   192.0000 </r>
       <r>   -45.3517     0.0000   192.0000 </r>
       <r>   -45.0735     0.0000   192.0000 </r>
       <r>   -44.7952     0.0000   192.0000 </r>
       <r>   -44.5170     0.0000   192.0000 </r>
       <r>   -44.2387     0.0000   192.0000 </r>
       <r>   -43.9605     0.0000   192.0000 </r>
       <r>   -43.6822     0.0000   192.0000 </r>
       <r>   -43.4040     0.0000   192.0000 </r>
       <r>   -43.1257     0.0000   192.0000 </r>
       <r>   -42.8475     0.0000   192.0000 </r>
       <r>   -42.5692     0.0000   192.0000 </r>
       <r>   -42.2910     0.0000   192.0000 </r>
       <r>   -42.0127     0.0000   192.0000 </r>
       <r>   -41.7345     0.0000   192.0000 </r>
       <r>   -41.4562     0.0000   192.0000 </r>
       <r>   -41.1780     0.0000   192.0000 </r>
       <r>   -40.8997     0.0000   192.0000 </r>
       <r>   -40.6215     0.0000   192.0000 </r>
       <r>   -40.3432     0.0000   192.0000 </r>
       <r>   -40.0650     0.0000   192.0000 </r>
       <r>   -39.7868     0.0000   192.0000 </r>
       <r>   -39.5085     0.0000   192.0000 </r>
       <r>   -39.2303     0.0000   192.0000 </r>
       <r>   -38.9520     0.0000   192.0000 </r>
       <r>   -38.6738     0.0000   192.0000 </r>
       <r>   -38.3955     0.0000   192.0000 </r>
       <r>   -38.1173     0.0000   192.0000 </r>
       <r>   -37.8390     0.0000   192.0000 </r>
       <r>   -37.5608     0.0000   192.0000 </r>
       <r>   -37.2825     0.0000   192.0000 </r>
       <r>   -37.0043     0.0000   192.0000 </r>
       <r>   -36.7260     0.0000   192.0000 </r>
       <r>   -36.4478     0.0000   192.0000 </r>
       <r>   -36.1695     0.0000   192.0000 </r>
       <r>   -35.8913     0.0000   192.0000 </r>
       <r>   -35.6130     0.0000   192.0000 </r>
       <r>   -35.3348     0.0000   192.0000 </r>
       <r>   -35.0565     0.0000   192.0000 </r>
       <r>   -34.7783     0.0000   192.0000 </r>
       <r>   -34.5000     0.0000   192.0000 </r>
       <r>   -34.2218     0.0000   192.0000 </r>
       <r>   -33.9435     0.0000   192.0000 </r>
       <r>   -33.6653     0.0000   192.0000 </r>
       <r>   -33.3870     0.0000   192.0000 </r>
       <r>   -33.1088     0.0000   192.0000 </r>
       <r>   -32.8305     0.0000   192.0000 </r>
       <r>   -32.5523     0.0000   192.0000 </r>
       <r>   -32.2740     0.0000   192.0000 </r>
       <r>   -31.9958     0.0000   192.0000 </r>
       <r>   -31.7175     0.0000   192.0000 </r>
       <r>   -31.4393     0.0000   192.0000 </r>
       <r>   -31.1610     0.0000   192.0000 </r>
       <r>   -30.8828     0.0000   192.0000 </r>
       <r>   -30.6045     0.0000   192.0000 </r>
       <r>   -30.3263     0.0000   192.0000 </r>
       <r>   -30.0480     0.0000   192.0000 </r>
       <r>   -29.7698     0.0000   192.0000 </r>
       <r>   -29.4915     0.0000   192.0000 </r>
       <r>   -29.2133     0.0000   192.0000 </r>
       <r>   -28.9350     0.0000   192.0000 </r>
       <r>   -28.6568     0.0000   192.0000 </r>
       <r>   -28.3785     0.0000   192.0000 </r>
       <r>   -28.1003     0.0000   192.0000 </r>
       <r>   -27.8220     0.0000   192.0000 </r>
       <r>   -27.5438     0.0000   192.0000 </r>
       <r>   -27.2655     0.0000   192.0000 </r>
       <r>   -26.9873     0.0000   192.0000 </r>
       <r>   -26.7090     0.0000   192.0000 </r>
       <r>   -26.4308     0.0000   192.0000 </r>
       <r>   -26.1525     0.0000   192.0000 </r>
       <r>   -25.8743     0.0000   192.0000 </r>
       <r>   -25.5960     0.0000   192.0000 </r>
       <r>   -25.3178     0.0000   192.0000 </r>
       <r>   -25.0395     0.0000   192.0000 </r>
       <r>   -24.7613     0.0000   192.0000 </r>
       <r>   -24.4830     0.0000   192.0000 </r>
       <r>   -24.2048     0.0000   192.0000 </r>
       <r>   -23.9265     0.0000   192.0000 </r>
       <r>   -23.6483     0.0000   192.0000 </r>
       <r>   -23.3700     0.0000   192.0000 </r>
       <r>   -23.0918     0.0000   192.0000 </r>
       <r>   -22.8135     0.0000   192.0000 </r>
       <r>   -22.5353     0.0000   192.0000 </r>
       <r>   -22.2570     0.0000   192.0000 </r>
       <r>   -21.9788     0.0000   192.0000 </r>
       <r>   -21.7005     0.0000   192.0000 </r>
       <r>   -21.4223     0.0000   192.0000 </r>
       <r>   -21.1440     0.0000   192.0000 </r>
       <r>   -20.8658     0.0000   192.0000 </r>
       <r>   -20.5875     0.0000   192.0000 </r>
       <r>   -20.3093     0.0000   192.0000 </r>
       <r>   -20.0310     0.0000   192.0000 </r>
       <r>   -19.7528     0.0000   192.0000 </r>
       <r>   -19.4745     0.0000   192.0000 </r>
       <r>   -19.1963     0.0000   192.0000 </r>
       <r>   -18.9180     0.0000   192.0000 </r>
       <r>   -18.6398     0.0000   192.0000 </r>
       <r>   -18.3615     0.0000   192.0000 </r>
       <r>   -18.0833     0.0000   192.0000 </r>
       <r>   -17.8050     0.0000   192.0000 </r>
       <r>   -17.5268     0.0000   192.0000 </r>
       <r>   -17.2485     0.0000   192.0000 </r>
       <r>   -16.9703     0.0000   192.0000 </r>
       <r>   -16.6920     0.0000   192.0000 </r>
       <r>   -16.4138     0.0000   192.0000 </r>
       <r>   -16.1355     0.0000   192.0000 </r>
       <r>   -15.8573     0.0000   192.0000 </r>
       <r>   -15.5790     0.0000   192.0000 </r>
       <r>   -15.3008     0.0000   192.0000 </r>
       <r>   -15.0225     0.0000   192.0000 </r>
       <r>   -14.7443     0.0000   192.0000 </r>
       <r>   -14.4661     0.0000   192.0000 </r>
       <r>   -14.1878     0.0000   192.0000 </r>
       <r>   -13.9096     0.0000   192.0000 </r>
       <r>   -13.6313     0.0000   192.0000 </r>
       <r>   -13.3531     0.0000   192.0000 </r>
       <r>   -13.0748     0.0000   192.0000 </r>
       <r>   -12.7966     0.0000   192.0000 </r>
       <r>   -12.5183     0.0000   192.0000 </r>
       <r>   -12.2401     0.0000   192.0000 </r>
       <r>   -11.9618     0.0000   192.0000 </r>
       <r>   -11.6836     0.0000   192.0000 </r>
       <r>   -11.4053     0.0000   192.0000 </r>
       <r>   -11.1271     0.0000   192.0000 </r>
       <r>   -10.8488     0.0000   192.0000 </r>
       <r>   -10.5706     0.0000   192.0000 </r>
       <r>   -10.2923     0.0000   192.0000 </r>
       <r>   -10.0141     0.0000   192.0000 </r>
       <r>    -9.7358     0.0000   192.0000 </r>
       <r>    -9.4576     0.0000   192.0000 </r>
       <r>    -9.1793     0.0000   192.0000 </r>
       <r>    -8.9011     0.0000   192.0000 </r>
       <r>    -8.6228     0.0000   192.0000 </r>
       <r>    -8.3446     0.0000   192.0000 </r>
       <r>    -8.0663     0.0000   192.0000 </r>
       <r>    -7.7881     0.0000   192.0000 </r>
       <r>    -7.5098     0.0000   192.0000 </r>
       <r>    -7.2316     0.0000   192.0000 </r>
       <r>    -6.9533     0.0000   192.0000 </r>
       <r>    -6.6751     0.0000   192.0000 </r>
       <r>    -6.3968     0.0000   192.0000 </r>
       <r>    -6.1186     0.0000   192.0000 </r>
       <r>    -5.8403     0.0000   192.0000 </r>
       <r>    -5.5621     0.0000   192.0000 </r>
       <r>    -5.2838     0.0000   192.0000 </r>
       <r>    -5.0056     0.0000   192.0000 </r>
       <r>    -4.7273     0.0000   192.0000 </r>
       <r>    -4.4491     0.0000   192.0000 </r>
       <r>    -4.1708     0.0000   192.0000 </r>
       <r>    -3.8926    -0.0000   192.0000 </r>
       <r>    -3.6143    -0.0000   192.0000 </r>
       <r>    -3.3361    -0.0000   192.0000 </r>
       <r>    -3.0578    -0.0000   192.0000 </r>
       <r>    -2.7796    -0.0000   192.0000 </r>
       <r>    -2.5013    -0.0014   191.9996 </r>
       <r>    -2.2231    -0.0067   191.9977 </r>
       <r>    -1.9448     0.4172   192.1138 </r>
       <r>    -1.6666     1.5406   192.5425 </r>
       <r>    -1.3883     1.6077   192.9898 </r>
       <r>    -1.1101     3.9688   194.0942 </r>
       <r>    -0.8318     0.8010   194.3170 </r>
       <r>    -0.5536     5.1108   195.7391 </r>
       <r>    -0.2753     3.6485   196.7543 </r>
       <r>     0.0029     4.7995   198.0898 </r>
       <r>     0.2812     1.4799   198.5015 </r>
       <r>     0.5594     9.2892   201.0862 </r>
       <r>     0.8377     5.0762   202.4987 </r>
       <r>     1.1159     6.3163   204.2562 </r>
       <r>     1.3942     4.3581   205.4688 </r>
       <r>     1.6724    12.3066   208.8931 </r>
       <r>     1.9507    12.0982   212.2595 </r>
       <r>     2.2289    10.2130   215.1012 </r>
       <r>     2.5072    25.2928   222.1389 </r>
       <r>     2.7854    38.2745   232.7888 </r>
       <r>     3.0637    30.6648   241.3213 </r>
       <r>     3.3419    59.3564   257.8372 </r>
       <r>     3.6202    67.4206   276.5969 </r>
       <r>     3.8984    64.7052   294.6011 </r>
       <r>     4.1767    82.6290   317.5926 </r>
       <r>     4.4549   105.4064   346.9219 </r>
       <r>     4.7332   118.4422   379.8783 </r>
       <r>     5.0114    92.4161   405.5931 </r>
       <r>     5.2897   103.0109   434.2558 </r>
       <r>     5.5679    93.5094   460.2747 </r>
       <r>     5.8462   111.6299   491.3357 </r>
       <r>     6.1244   119.1180   524.4802 </r>
       <r>     6.4027    35.7716   534.4336 </r>
       <r>     6.6809    11.2228   537.5563 </r>
       <r>     6.9592     8.6534   539.9642 </r>
       <r>     7.2374    17.0508   544.7085 </r>
       <r>     7.5157    11.8196   547.9973 </r>
       <r>     7.7939     8.5206   550.3682 </r>
       <r>     8.0722     7.6039   552.4840 </r>
       <r>     8.3504    14.0462   556.3923 </r>
       <r>     8.6287     8.2744   558.6947 </r>
       <r>     8.9069    10.9466   561.7406 </r>
       <r>     9.1852     4.6515   563.0349 </r>
       <r>     9.4634    11.2234   566.1577 </r>
       <r>     9.7417     5.7171   567.7485 </r>
       <r>    10.0199     0.6233   567.9220 </r>
       <r>    10.2982    10.0579   570.7206 </r>
       <r>    10.5764     6.0446   572.4025 </r>
       <r>    10.8547     5.2761   573.8705 </r>
       <r>    11.1329    12.7237   577.4109 </r>
       <r>    11.4111    12.7106   580.9476 </r>
       <r>    11.6894     8.4631   583.3025 </r>
       <r>    11.9676     6.1064   585.0016 </r>
       <r>    12.2459     9.2895   587.5864 </r>
       <r>    12.5241    11.3390   590.7415 </r>
       <r>    12.8024     5.7627   592.3449 </r>
       <r>    13.0806    13.7507   596.1711 </r>
       <r>    13.3589    10.9779   599.2256 </r>
       <r>    13.6371     4.3743   600.4428 </r>
       <r>    13.9154    10.3217   603.3148 </r>
       <r>    14.1936     8.8943   605.7896 </r>
       <r>    14.4719     9.8100   608.5192 </r>
       <r>    14.7501     8.8267   610.9753 </r>
       <r>    15.0284    11.4094   614.1499 </r>
       <r>    15.3066    19.2942   619.5185 </r>
       <r>    15.5849    15.2022   623.7485 </r>
       <r>    15.8631     8.0677   625.9934 </r>
       <r>    16.1414    16.3860   630.5528 </r>
       <r>    16.4196    10.1779   633.3847 </r>
       <r>    16.6979    11.0063   636.4472 </r>
       <r>    16.9761    14.7962   640.5643 </r>
       <r>    17.2544     7.7016   642.7072 </r>
       <r>    17.5326    11.4373   645.8897 </r>
       <r>    17.8109     5.7316   647.4845 </r>
       <r>    18.0891     1.9545   648.0283 </r>
       <r>    18.3674    -0.0992   648.0007 </r>
       <r>    18.6456    -0.0026   648.0000 </r>
       <r>    18.9239    -0.0000   648.0000 </r>
       <r>    19.2021    -0.0000   648.0000 </r>
       <r>    19.4804     0.0000   648.0000 </r>
       <r>    19.7586     0.0000   648.0000 </r>
       <r>    20.0369     0.0000   648.0000 </r>
       <r>    20.3151     0.0000   648.0000 </r>
       <r>    20.5934     0.0000   648.0000 </r>
       <r>    20.8716     0.0000   648.0000 </r>
       <r>    21.1499     0.0000   648.0000 </r>
       <r>    21.4281     0.0000   648.0000 </r>
       <r>    21.7064     0.0000   648.0000 </r>
      </set>
     </set>
    </array>
   </total>
  </dos>
 </calculation>
 <structure name="finalpos" >
  <crystal>
   <varray name="basis" >
    <v>       0.00000000       7.47300000       7.47300000 </v>
    <v>       7.47300000       0.00000000       7.47300000 </v>
    <v>       7.47300000       7.47300000       0.00000000 </v>
   </varray>
   <i name="volume">    834.67026563 </i>
   <varray name="rec_basis" >
    <v>      -0.06690753       0.06690753       0.06690753 </v>
    <v>       0.06690753      -0.06690753       0.06690753 </v>
    <v>       0.06690753       0.06690753      -0.06690753 </v>
   </varray>
  </crystal>
  <varray name="positions" >
   <v>       0.00100361      -0.00100361      -0.00100361 </v>
   <v>       0.00000000       0.00000000       0.25000000 </v>
   <v>       0.00000000       0.00000000       0.50000000 </v>
   <v>       0.00000000       0.00000000       0.75000000 </v>
   <v>       0.00000000       0.25000000       0.00000000 </v>
   <v>       0.00000000       0.25000000       0.25000000 </v>
   <v>       0.00000000       0.25000000       0.50000000 </v>
   <v>       0.00000000       0.25000000       0.75000000 </v>
   <v>       0.00000000       0.50000000       0.00000000 </v>
   <v>       0.00000000       0.50000000       0.25000000 </v>
   <v>       0.00000000       0.50000000       0.50000000 </v>
   <v>       0.00000000       0.50000000       0.75000000 </v>
   <v>       0.00000000       0.75000000       0.00000000 </v>
   <v>       0.00000000       0.75000000       0.25000000 </v>
   <v>       0.00000000       0.75000000       0.50000000 </v>
   <v>       0.00000000       0.75000000       0.75000000 </v>
   <v>       0.25000000       0.00000000       0.00000000 </v>
   <v>       0.25000000       0.00000000       0.25000000 </v>
   <v>       0.25000000       0.00000000       0.50000000 </v>
   <v>       0.25000000       0.00000000       0.75000000 </v>
   <v>       0.25000000       0.25000000       0.00000000 </v>
   <v>       0.25000000       0.25000000       0.25000000 </v>
   <v>       0.25000000       0.25000000       0.50000000 </v>
   <v>       0.25000000       0.25000000       0.75000000 </v>
   <v>       0.25000000       0.50000000       0.00000000 </v>
   <v>       0.25000000       0.50000000       0.25000000 </v>
   <v>       0.25000000       0.50000000       0.50000000 </v>
   <v>       0.25000000       0.50000000       0.75000000 </v>
   <v>       0.25000000       0.75000000       0.00000000 </v>
   <v>       0.25000000       0.75000000       0.25000000 </v>
   <v>       0.25000000       0.75000000       0.50000000 </v>
   <v>       0.25000000       0.75000000       0.75000000 </v>
   <v>       0.50000000       0.00000000       0.00000000 </v>
   <v>       0.50000000       0.00000000       0.25000000 </v>
   <v>       0.50000000       0.00000000       0.50000000 </v>
   <v>       0.50000000       0.00000000       0.75000000 </v>
   <v>       0.50000000       0.25000000       0.00000000 </v>
   <v>       0.50000000       0.25000000       0.25000000 </v>
   <v>       0.50000000       0.25000000       0.50000000 </v>
   <v>       0.50000000       0.25000000       0.75000000 </v>
   <v>       0.50000000       0.50000000       0.00000000 </v>
   <v>       0.50000000       0.50000000       0.25000000 </v>
   <v>       0.50000000       0.50000000       0.50000000 </v>
   <v>       0.50000000       0.50000000       0.75000000 </v>
   <v>       0.50000000       0.75000000       0.00000000 </v>
   <v>       0.50000000       0.75000000       0.25000000 </v>
   <v>       0.50000000       0.75000000       0.50000000 </v>
   <v>       0.50000000       0.75000000       0.75000000 </v>
   <v>       0.75000000       0.00000000       0.00000000 </v>
   <v>       0.75000000       0.00000000       0.25000000 </v>
   <v>       0.75000000       0.00000000       0.50000000 </v>
   <v>       0.75000000       0.00000000       0.75000000 </v>
   <v>       0.75000000       0.25000000       0.00000000 </v>
   <v>       0.75000000       0.25000000       0.25000000 </v>
   <v>       0.75000000       0.25000000       0.50000000 </v>
   <v>       0.75000000       0.25000000       0.75000000 </v>
   <v>       0.75000000       0.50000000       0.00000000 </v>
   <v>       0.75000000       0.50000000       0.25000000 </v>
   <v>       0.75000000       0.50000000       0.50000000 </v>
   <v>       0.75000000       0.50000000       0.75000000 </v>
   <v>       0.75000000       0.75000000       0.00000000 </v>
   <v>       0.75000000       0.75000000       0.25000000 </v>
   <v>       0.75000000       0.75000000       0.50000000 </v>
   <v>       0.75000000       0.75000000       0.75000000 </v>
  </varray>
 </structure>
</modeling>
