<?xml version="1.0" encoding="ISO-8859-1"?>
<modeling>
 <generator>
  <i name="program" type="string">vasp </i>
  <i name="version" type="string">5.4.1  </i>
  <i name="subversion" type="string">05Feb16 (build Oct 12 2016 17:31:35) complex                          parallel </i>
  <i name="platform" type="string">IFC91_ompi </i>
  <i name="date" type="string">2020 09 07 </i>
  <i name="time" type="string">23:18:49 </i>
 </generator>
 <incar>
  <i type="string" name="SYSTEM"> phonon of Zr bcc - omiga</i>
  <i type="string" name="PREC">h</i>
  <i type="int" name="ISPIN">     2</i>
  <i type="int" name="IBRION">     6</i>
  <i name="EDIFF">      0.00000100</i>
  <i type="int" name="NSW">     1</i>
  <v name="MAGMOM">      1.00000000      1.00000000      1.00000000      1.00000000      1.00000000      1.00000000      1.00000000      1.00000000      1.00000000      1.00000000      1.00000000      1.00000000      1.00000000      1.00000000      1.00000000      1.00000000      1.00000000      1.00000000      1.00000000      1.00000000
      1.00000000      1.00000000      1.00000000      1.00000000      1.00000000      1.00000000      1.00000000      1.00000000      1.00000000      1.00000000      1.00000000      1.00000000      1.00000000      1.00000000      1.00000000      1.00000000      1.00000000      1.00000000      1.00000000      1.00000000
      1.00000000      1.00000000      1.00000000      1.00000000      1.00000000      1.00000000      1.00000000      1.00000000      1.00000000      1.00000000      1.00000000      1.00000000      1.00000000      1.00000000      1.00000000      1.00000000      1.00000000      1.00000000      1.00000000      1.00000000
      1.00000000      1.00000000      1.00000000      1.00000000</v>
  <i type="string" name="LREAL">Auto</i>
  <i type="int" name="ISMEAR">     1</i>
  <i type="int" name="NWRITE">     0</i>
  <v type="int" name="KPOINT_BSE">    -1     0     0     0</v>
 </incar>
 <kpoints>
  <generation param="Gamma">
   <v type="int" name="divisions">       3        3        3 </v>
   <v name="usershift">      0.00000000       0.00000000       0.00000000 </v>
   <v name="genvec1">      0.33333333       0.00000000       0.00000000 </v>
   <v name="genvec2">      0.00000000       0.33333333       0.00000000 </v>
   <v name="genvec3">      0.00000000       0.00000000       0.33333333 </v>
   <v name="shift">      0.00000000       0.00000000       0.00000000 </v>
  </generation>
  <varray name="kpointlist" >
   <v>       0.00000000       0.00000000       0.00000000 </v>
   <v>       0.33333333       0.00000000       0.00000000 </v>
   <v>       0.33333333       0.33333333       0.00000000 </v>
   <v>      -0.33333333       0.33333333       0.00000000 </v>
  </varray>
  <varray name="weights" >
   <v>       0.03703704 </v>
   <v>       0.29629630 </v>
   <v>       0.22222222 </v>
   <v>       0.44444444 </v>
  </varray>
 </kpoints>
 <parameters>
  <separator name="general" >
   <i type="string" name="SYSTEM">phonon of Zr bcc - omiga</i>
   <i type="logical" name="LCOMPAT"> F  </i>
  </separator>
  <separator name="electronic" >
   <i type="string" name="PREC">h</i>
   <i name="ENMAX">    459.93125000</i>
   <i name="ENAUG">    703.44300000</i>
   <i name="EDIFF">      0.00000100</i>
   <i type="int" name="IALGO">    38</i>
   <i type="int" name="IWAVPR">    11</i>
   <i type="int" name="NBANDS">   648</i>
   <i name="NELECT">   1024.00000000</i>
   <i type="int" name="TURBO">     0</i>
   <i type="int" name="IRESTART">     0</i>
   <i type="int" name="NREBOOT">     0</i>
   <i type="int" name="NMIN">     0</i>
   <i name="EREF">      0.00000000</i>
   <separator name="electronic smearing" >
    <i type="int" name="ISMEAR">     1</i>
    <i name="SIGMA">      0.20000000</i>
    <i name="KSPACING">      0.50000000</i>
    <i type="logical" name="KGAMMA"> T  </i>
   </separator>
   <separator name="electronic projectors" >
    <i type="logical" name="LREAL"> T  </i>
    <v name="ROPT">     -0.00040000</v>
    <i type="int" name="LMAXPAW">  -100</i>
    <i type="int" name="LMAXMIX">     2</i>
    <i type="logical" name="NLSPLINE"> F  </i>
   </separator>
   <separator name="electronic startup" >
    <i type="int" name="ISTART">     0</i>
    <i type="int" name="ICHARG">     2</i>
    <i type="int" name="INIWAV">     1</i>
   </separator>
   <separator name="electronic spin" >
    <i type="int" name="ISPIN">     2</i>
    <i type="logical" name="LNONCOLLINEAR"> F  </i>
    <v name="MAGMOM">      1.00000000      1.00000000      1.00000000      1.00000000      1.00000000      1.00000000      1.00000000      1.00000000      1.00000000      1.00000000      1.00000000      1.00000000      1.00000000      1.00000000      1.00000000      1.00000000      1.00000000      1.00000000      1.00000000      1.00000000
      1.00000000      1.00000000      1.00000000      1.00000000      1.00000000      1.00000000      1.00000000      1.00000000      1.00000000      1.00000000      1.00000000      1.00000000      1.00000000      1.00000000      1.00000000      1.00000000      1.00000000      1.00000000      1.00000000      1.00000000
      1.00000000      1.00000000      1.00000000      1.00000000      1.00000000      1.00000000      1.00000000      1.00000000      1.00000000      1.00000000      1.00000000      1.00000000      1.00000000      1.00000000      1.00000000      1.00000000      1.00000000      1.00000000      1.00000000      1.00000000
      1.00000000      1.00000000      1.00000000      1.00000000</v>
    <i name="NUPDOWN">     -1.00000000</i>
    <i type="logical" name="LSORBIT"> F  </i>
    <v name="SAXIS">      0.00000000      0.00000000      1.00000000</v>
    <i type="logical" name="LSPIRAL"> F  </i>
    <v name="QSPIRAL">      0.00000000      0.00000000      0.00000000</v>
    <i type="logical" name="LZEROZ"> F  </i>
   </separator>
   <separator name="electronic exchange-correlation" >
    <i type="logical" name="LASPH"> F  </i>
    <i type="logical" name="LMETAGGA"> F  </i>
   </separator>
   <separator name="electronic convergence" >
    <i type="int" name="NELM">    60</i>
    <i type="int" name="NELMDL">     0</i>
    <i type="int" name="NELMIN">     2</i>
    <i name="ENINI">    459.93125000</i>
    <separator name="electronic convergence detail" >
     <i type="logical" name="LDIAG"> T  </i>
     <i type="logical" name="LSUBROT"> F  </i>
     <i name="WEIMIN">      0.00100000</i>
     <i name="EBREAK">      0.00000000</i>
     <i name="DEPER">      0.30000000</i>
     <i type="int" name="NRMM">     4</i>
     <i name="TIME">      0.40000000</i>
    </separator>
   </separator>
   <separator name="electronic mixer" >
    <i name="AMIX">      0.40000000</i>
    <i name="BMIX">      1.00000000</i>
    <i name="AMIN">      0.10000000</i>
    <i name="AMIX_MAG">      1.60000000</i>
    <i name="BMIX_MAG">      1.00000000</i>
    <separator name="electronic mixer details" >
     <i type="int" name="IMIX">     4</i>
     <i type="logical" name="MIXFIRST"> F  </i>
     <i type="int" name="MAXMIX">   -45</i>
     <i name="WC">    100.00000000</i>
     <i type="int" name="INIMIX">     1</i>
     <i type="int" name="MIXPRE">     1</i>
     <i type="int" name="MREMOVE">     5</i>
    </separator>
   </separator>
   <separator name="electronic dipolcorrection" >
    <i type="logical" name="LDIPOL"> F  </i>
    <i type="logical" name="LMONO"> F  </i>
    <i type="int" name="IDIPOL">     0</i>
    <i name="EPSILON">      1.00000000</i>
    <v name="DIPOL">   -100.00000000   -100.00000000   -100.00000000</v>
    <i name="EFIELD">      0.00000000</i>
   </separator>
  </separator>
  <separator name="grids" >
   <i type="int" name="NGX">    80</i>
   <i type="int" name="NGY">    80</i>
   <i type="int" name="NGZ">    80</i>
   <i type="int" name="NGXF">   120</i>
   <i type="int" name="NGYF">   120</i>
   <i type="int" name="NGZF">   120</i>
   <i type="logical" name="ADDGRID"> F  </i>
  </separator>
  <separator name="ionic" >
   <i type="int" name="NSW">   805</i>
   <i type="int" name="IBRION">     6</i>
   <i type="int" name="ISIF">     2</i>
   <i name="PSTRESS">      0.00000000</i>
   <i name="EDIFFG">      0.00001000</i>
   <i type="int" name="NFREE">     2</i>
   <i name="POTIM">      0.50000000</i>
   <i name="SMASS">     -3.00000000</i>
   <i name="SCALEE">      1.00000000</i>
  </separator>
  <separator name="ionic md" >
   <i name="TEBEG">      0.00010000</i>
   <i name="TEEND">      0.00010000</i>
   <i type="int" name="NBLOCK">     1</i>
   <i type="int" name="KBLOCK">     1</i>
   <i type="int" name="NPACO">   256</i>
   <i name="APACO">     16.00000000</i>
  </separator>
  <separator name="symmetry" >
   <i type="int" name="ISYM">     2</i>
   <i name="SYMPREC">      0.00001000</i>
  </separator>
  <separator name="dos" >
   <i type="logical" name="LORBIT"> F  </i>
   <v name="RWIGS">     -1.00000000</v>
   <i type="int" name="NEDOS">   301</i>
   <i name="EMIN">     10.00000000</i>
   <i name="EMAX">    -10.00000000</i>
   <i name="EFERMI">      0.00000000</i>
  </separator>
  <separator name="writing" >
   <i type="int" name="NWRITE">     0</i>
   <i type="logical" name="LWAVE"> T  </i>
   <i type="logical" name="LCHARG"> T  </i>
   <i type="logical" name="LPARD"> F  </i>
   <i type="logical" name="LVTOT"> F  </i>
   <i type="logical" name="LVHAR"> F  </i>
   <i type="logical" name="LELF"> F  </i>
   <i type="logical" name="LOPTICS"> F  </i>
   <v name="STM">      0.00000000      0.00000000      0.00000000      0.00000000      0.00000000      0.00000000      0.00000000</v>
  </separator>
  <separator name="performance" >
   <i type="int" name="NPAR">     4</i>
   <i type="int" name="NSIM">     4</i>
   <i type="int" name="NBLK">    -1</i>
   <i type="logical" name="LPLANE"> T  </i>
   <i type="logical" name="LSCALAPACK"> T  </i>
   <i type="logical" name="LSCAAWARE"> F  </i>
   <i type="logical" name="LSCALU"> F  </i>
   <i type="logical" name="LASYNC"> F  </i>
   <i type="logical" name="LORBITALREAL"> F  </i>
  </separator>
  <separator name="miscellaneous" >
   <i type="int" name="IDIOT">     3</i>
   <i type="logical" name="LMUSIC"> F  </i>
   <v name="POMASS">     58.69000000</v>
   <v name="DARWINR">      0.00000000</v>
   <v name="DARWINV">      1.00000000</v>
   <i type="logical" name="LCORR"> T  </i>
  </separator>
  <i type="logical" name="GGA_COMPAT"> T  </i>
  <i type="logical" name="LBERRY"> F  </i>
  <i type="int" name="ICORELEVEL">     0</i>
  <i type="logical" name="LDAU"> F  </i>
  <i type="int" name="I_CONSTRAINED_M">     0</i>
  <separator name="electronic exchange-correlation" >
   <i type="string" name="GGA">--</i>
   <i type="int" name="VOSKOWN">     0</i>
   <i type="logical" name="LHFCALC"> F  </i>
   <i type="string" name="PRECFOCK"></i>
   <i type="logical" name="LSYMGRAD"> F  </i>
   <i type="logical" name="LHFONE"> F  </i>
   <i type="logical" name="LRHFCALC"> F  </i>
   <i type="logical" name="LTHOMAS"> F  </i>
   <i type="logical" name="LMODELHF"> F  </i>
   <i name="ENCUT4O">     -1.00000000</i>
   <i type="int" name="EXXOEP">     0</i>
   <i type="int" name="FOURORBIT">     0</i>
   <i name="AEXX">      0.00000000</i>
   <i name="HFALPHA">      0.00000000</i>
   <i name="MCALPHA">      0.00000000</i>
   <i name="ALDAX">      1.00000000</i>
   <i name="AGGAX">      1.00000000</i>
   <i name="ALDAC">      1.00000000</i>
   <i name="AGGAC">      1.00000000</i>
   <i type="int" name="NKREDX">     1</i>
   <i type="int" name="NKREDY">     1</i>
   <i type="int" name="NKREDZ">     1</i>
   <i type="logical" name="SHIFTRED"> F  </i>
   <i type="logical" name="ODDONLY"> F  </i>
   <i type="logical" name="EVENONLY"> F  </i>
   <i type="int" name="LMAXFOCK">     0</i>
   <i type="int" name="NMAXFOCKAE">     0</i>
   <i type="logical" name="LFOCKAEDFT"> F  </i>
   <i name="HFSCREEN">      0.00000000</i>
   <i name="HFSCREENC">      0.00000000</i>
   <i type="int" name="NBANDSGWLOW">     0</i>
  </separator>
  <separator name="vdW DFT" >
   <i type="logical" name="LUSE_VDW"> F  </i>
   <i name="Zab_VDW">     -0.84910000</i>
   <i name="PARAM1">      0.12340000</i>
   <i name="PARAM2">      1.00000000</i>
   <i name="PARAM3">      0.00000000</i>
  </separator>
  <separator name="model GW" >
   <i type="int" name="MODEL_GW">     0</i>
   <i name="MODEL_EPS0">      7.49751761</i>
   <i name="MODEL_ALPHA">      1.00000000</i>
  </separator>
  <separator name="linear response parameters" >
   <i type="logical" name="LEPSILON"> F  </i>
   <i type="logical" name="LRPA"> F  </i>
   <i type="logical" name="LNABLA"> F  </i>
   <i type="logical" name="LVEL"> F  </i>
   <i type="int" name="KINTER">     0</i>
   <i name="CSHIFT">      0.10000000</i>
   <i name="OMEGAMAX">     -1.00000000</i>
   <i name="DEG_THRESHOLD">      0.00200000</i>
  </separator>
  <separator name="orbital magnetization" >
   <i type="logical" name="NUCIND"> F  </i>
   <v name="MAGPOS">      0.00000000      0.00000000      0.00000000</v>
   <i type="logical" name="LNICSALL"> T  </i>
   <i type="logical" name="ORBITALMAG"> F  </i>
   <i type="logical" name="LMAGBLOCH"> F  </i>
   <i type="logical" name="LCHIMAG"> F  </i>
   <i type="logical" name="LGAUGE"> T  </i>
   <i type="int" name="MAGATOM">     0</i>
   <v name="MAGDIPOL">      0.00000000      0.00000000      0.00000000</v>
   <v name="AVECCONST">      0.00000000      0.00000000      0.00000000</v>
  </separator>
  <separator name="response functions" >
   <i type="logical" name="LADDER"> F  </i>
   <i type="logical" name="LFXC"> F  </i>
   <i type="logical" name="LHARTREE"> T  </i>
   <i type="int" name="IBSE">     0</i>
   <v type="int" name="KPOINT">    -1     0     0     0</v>
   <i type="logical" name="LTCTE"> F  </i>
   <i type="logical" name="LTETE"> F  </i>
   <i type="logical" name="LTRIPLET"> F  </i>
   <i type="logical" name="LFXCEPS"> F  </i>
   <i type="logical" name="LFXHEG"> F  </i>
   <i type="int" name="NATURALO">     0</i>
   <i type="logical" name="L2ORDER"> F  </i>
   <i type="logical" name="LUSEW"> F  </i>
   <i name="ENCUTGW">     -2.00000000</i>
   <i name="ENCUTGWSOFT">     -2.00000000</i>
   <i name="ENCUTLF">     -1.00000000</i>
   <i type="int" name="LMAXMP2">    -1</i>
   <i name="SCISSOR">      0.00000000</i>
   <i type="int" name="NOMEGA">     0</i>
   <i type="int" name="NOMEGAR">     0</i>
   <i type="int" name="NBANDSGW">    -1</i>
   <i type="int" name="NBANDSO">    -1</i>
   <i type="int" name="NBANDSV">    -1</i>
   <i type="int" name="NELM">     1</i>
   <i type="int" name="NELMHF">     1</i>
   <i type="int" name="DIM">     3</i>
   <i type="int" name="ANTIRES">     0</i>
   <i name="OMEGAMAX">    -30.00000000</i>
   <i name="OMEGAMIN">    -30.00000000</i>
   <i name="OMEGATL">   -200.00000000</i>
   <i type="int" name="OMEGAGRID">     0</i>
   <i name="CSHIFT">     -0.10000000</i>
   <i type="logical" name="SELFENERGY"> F  </i>
   <i type="logical" name="LSPECTRAL"> F  </i>
   <i type="logical" name="LSPECTRALGW"> F  </i>
   <i type="logical" name="LSINGLES"> F  </i>
   <i type="logical" name="LFERMIGW"> F  </i>
   <i type="logical" name="ODDONLYGW"> F  </i>
   <i type="logical" name="EVENONLYGW"> F  </i>
   <i type="int" name="NKREDLFX">     1</i>
   <i type="int" name="NKREDLFY">     1</i>
   <i type="int" name="NKREDLFZ">     1</i>
   <i type="int" name="MAXMEM">  1800</i>
   <i type="int" name="TELESCOPE">     0</i>
   <i type="int" name="TAUPAR">     1</i>
   <i type="int" name="OMEGAPAR">    -1</i>
   <i name="LAMBDA">      1.00000000</i>
  </separator>
  <separator name="External order field" >
   <i name="OFIELD_KAPPA">      0.00000000</i>
   <v name="OFIELD_K">      0.00000000      0.00000000      0.00000000</v>
   <i name="OFIELD_Q6_NEAR">      0.00000000</i>
   <i name="OFIELD_Q6_FAR">      0.00000000</i>
   <i name="OFIELD_A">      0.00000000</i>
  </separator>
 </parameters>
 <atominfo>
  <atoms>      64 </atoms>
  <types>       1 </types>
  <array name="atoms" >
   <dimension dim="1">ion</dimension>
   <field type="string">element</field>
   <field type="int">atomtype</field>
   <set>
    <rc><c>Ni</c><c>   1</c></rc>
    <rc><c>Ni</c><c>   1</c></rc>
    <rc><c>Ni</c><c>   1</c></rc>
    <rc><c>Ni</c><c>   1</c></rc>
    <rc><c>Ni</c><c>   1</c></rc>
    <rc><c>Ni</c><c>   1</c></rc>
    <rc><c>Ni</c><c>   1</c></rc>
    <rc><c>Ni</c><c>   1</c></rc>
    <rc><c>Ni</c><c>   1</c></rc>
    <rc><c>Ni</c><c>   1</c></rc>
    <rc><c>Ni</c><c>   1</c></rc>
    <rc><c>Ni</c><c>   1</c></rc>
    <rc><c>Ni</c><c>   1</c></rc>
    <rc><c>Ni</c><c>   1</c></rc>
    <rc><c>Ni</c><c>   1</c></rc>
    <rc><c>Ni</c><c>   1</c></rc>
    <rc><c>Ni</c><c>   1</c></rc>
    <rc><c>Ni</c><c>   1</c></rc>
    <rc><c>Ni</c><c>   1</c></rc>
    <rc><c>Ni</c><c>   1</c></rc>
    <rc><c>Ni</c><c>   1</c></rc>
    <rc><c>Ni</c><c>   1</c></rc>
    <rc><c>Ni</c><c>   1</c></rc>
    <rc><c>Ni</c><c>   1</c></rc>
    <rc><c>Ni</c><c>   1</c></rc>
    <rc><c>Ni</c><c>   1</c></rc>
    <rc><c>Ni</c><c>   1</c></rc>
    <rc><c>Ni</c><c>   1</c></rc>
    <rc><c>Ni</c><c>   1</c></rc>
    <rc><c>Ni</c><c>   1</c></rc>
    <rc><c>Ni</c><c>   1</c></rc>
    <rc><c>Ni</c><c>   1</c></rc>
    <rc><c>Ni</c><c>   1</c></rc>
    <rc><c>Ni</c><c>   1</c></rc>
    <rc><c>Ni</c><c>   1</c></rc>
    <rc><c>Ni</c><c>   1</c></rc>
    <rc><c>Ni</c><c>   1</c></rc>
    <rc><c>Ni</c><c>   1</c></rc>
    <rc><c>Ni</c><c>   1</c></rc>
    <rc><c>Ni</c><c>   1</c></rc>
    <rc><c>Ni</c><c>   1</c></rc>
    <rc><c>Ni</c><c>   1</c></rc>
    <rc><c>Ni</c><c>   1</c></rc>
    <rc><c>Ni</c><c>   1</c></rc>
    <rc><c>Ni</c><c>   1</c></rc>
    <rc><c>Ni</c><c>   1</c></rc>
    <rc><c>Ni</c><c>   1</c></rc>
    <rc><c>Ni</c><c>   1</c></rc>
    <rc><c>Ni</c><c>   1</c></rc>
    <rc><c>Ni</c><c>   1</c></rc>
    <rc><c>Ni</c><c>   1</c></rc>
    <rc><c>Ni</c><c>   1</c></rc>
    <rc><c>Ni</c><c>   1</c></rc>
    <rc><c>Ni</c><c>   1</c></rc>
    <rc><c>Ni</c><c>   1</c></rc>
    <rc><c>Ni</c><c>   1</c></rc>
    <rc><c>Ni</c><c>   1</c></rc>
    <rc><c>Ni</c><c>   1</c></rc>
    <rc><c>Ni</c><c>   1</c></rc>
    <rc><c>Ni</c><c>   1</c></rc>
    <rc><c>Ni</c><c>   1</c></rc>
    <rc><c>Ni</c><c>   1</c></rc>
    <rc><c>Ni</c><c>   1</c></rc>
    <rc><c>Ni</c><c>   1</c></rc>
   </set>
  </array>
  <array name="atomtypes" >
   <dimension dim="1">type</dimension>
   <field type="int">atomspertype</field>
   <field type="string">element</field>
   <field>mass</field>
   <field>valence</field>
   <field type="string">pseudopotential</field>
   <set>
    <rc><c>  64</c><c>Ni</c><c>     58.69000000</c><c>     16.00000000</c><c> PAW_PBE Ni_pv 06Sep2000                </c></rc>
   </set>
  </array>
 </atominfo>
 <structure name="initialpos" >
  <crystal>
   <varray name="basis" >
    <v>       0.00000000       7.36725000       7.36725000 </v>
    <v>       7.36725000       0.00000000       7.36725000 </v>
    <v>       7.36725000       7.36725000       0.00000000 </v>
   </varray>
   <i name="volume">    799.73521152 </i>
   <varray name="rec_basis" >
    <v>      -0.06786793       0.06786793       0.06786793 </v>
    <v>       0.06786793      -0.06786793       0.06786793 </v>
    <v>       0.06786793       0.06786793      -0.06786793 </v>
   </varray>
  </crystal>
  <varray name="positions" >
   <v>       0.00000000       0.00000000       0.00000000 </v>
   <v>       0.00000000       0.00000000       0.25000000 </v>
   <v>       0.00000000       0.00000000       0.50000000 </v>
   <v>       0.00000000       0.00000000       0.75000000 </v>
   <v>       0.00000000       0.25000000       0.00000000 </v>
   <v>       0.00000000       0.25000000       0.25000000 </v>
   <v>       0.00000000       0.25000000       0.50000000 </v>
   <v>       0.00000000       0.25000000       0.75000000 </v>
   <v>       0.00000000       0.50000000       0.00000000 </v>
   <v>       0.00000000       0.50000000       0.25000000 </v>
   <v>       0.00000000       0.50000000       0.50000000 </v>
   <v>       0.00000000       0.50000000       0.75000000 </v>
   <v>       0.00000000       0.75000000       0.00000000 </v>
   <v>       0.00000000       0.75000000       0.25000000 </v>
   <v>       0.00000000       0.75000000       0.50000000 </v>
   <v>       0.00000000       0.75000000       0.75000000 </v>
   <v>       0.25000000       0.00000000       0.00000000 </v>
   <v>       0.25000000       0.00000000       0.25000000 </v>
   <v>       0.25000000       0.00000000       0.50000000 </v>
   <v>       0.25000000       0.00000000       0.75000000 </v>
   <v>       0.25000000       0.25000000       0.00000000 </v>
   <v>       0.25000000       0.25000000       0.25000000 </v>
   <v>       0.25000000       0.25000000       0.50000000 </v>
   <v>       0.25000000       0.25000000       0.75000000 </v>
   <v>       0.25000000       0.50000000       0.00000000 </v>
   <v>       0.25000000       0.50000000       0.25000000 </v>
   <v>       0.25000000       0.50000000       0.50000000 </v>
   <v>       0.25000000       0.50000000       0.75000000 </v>
   <v>       0.25000000       0.75000000       0.00000000 </v>
   <v>       0.25000000       0.75000000       0.25000000 </v>
   <v>       0.25000000       0.75000000       0.50000000 </v>
   <v>       0.25000000       0.75000000       0.75000000 </v>
   <v>       0.50000000       0.00000000       0.00000000 </v>
   <v>       0.50000000       0.00000000       0.25000000 </v>
   <v>       0.50000000       0.00000000       0.50000000 </v>
   <v>       0.50000000       0.00000000       0.75000000 </v>
   <v>       0.50000000       0.25000000       0.00000000 </v>
   <v>       0.50000000       0.25000000       0.25000000 </v>
   <v>       0.50000000       0.25000000       0.50000000 </v>
   <v>       0.50000000       0.25000000       0.75000000 </v>
   <v>       0.50000000       0.50000000       0.00000000 </v>
   <v>       0.50000000       0.50000000       0.25000000 </v>
   <v>       0.50000000       0.50000000       0.50000000 </v>
   <v>       0.50000000       0.50000000       0.75000000 </v>
   <v>       0.50000000       0.75000000       0.00000000 </v>
   <v>       0.50000000       0.75000000       0.25000000 </v>
   <v>       0.50000000       0.75000000       0.50000000 </v>
   <v>       0.50000000       0.75000000       0.75000000 </v>
   <v>       0.75000000       0.00000000       0.00000000 </v>
   <v>       0.75000000       0.00000000       0.25000000 </v>
   <v>       0.75000000       0.00000000       0.50000000 </v>
   <v>       0.75000000       0.00000000       0.75000000 </v>
   <v>       0.75000000       0.25000000       0.00000000 </v>
   <v>       0.75000000       0.25000000       0.25000000 </v>
   <v>       0.75000000       0.25000000       0.50000000 </v>
   <v>       0.75000000       0.25000000       0.75000000 </v>
   <v>       0.75000000       0.50000000       0.00000000 </v>
   <v>       0.75000000       0.50000000       0.25000000 </v>
   <v>       0.75000000       0.50000000       0.50000000 </v>
   <v>       0.75000000       0.50000000       0.75000000 </v>
   <v>       0.75000000       0.75000000       0.00000000 </v>
   <v>       0.75000000       0.75000000       0.25000000 </v>
   <v>       0.75000000       0.75000000       0.50000000 </v>
   <v>       0.75000000       0.75000000       0.75000000 </v>
  </varray>
 </structure>
 <calculation>
  <scstep>
   <time name="dav">  203.19  203.03</time>
   <time name="total">  203.80  203.64</time>
   <energy>
    <i name="alphaZ">   8628.10280496 </i>
    <i name="ewald">-146823.96742904 </i>
    <i name="hartreedc"> -65868.69495315 </i>
    <i name="XCdc">   5689.76584338 </i>
    <i name="pawpsdc"> 172361.15642774 </i>
    <i name="pawaedc">-181272.45834873 </i>
    <i name="eentropy">      0.00543700 </i>
    <i name="bandstr">  -1306.39823349 </i>
    <i name="atom"> 224016.65216645 </i>
    <i name="e_fr_energy">  15424.16371511 </i>
    <i name="e_wo_entrp">  15424.15827811 </i>
    <i name="e_0_energy">  15424.16190278 </i>
   </energy>
  </scstep>
  <scstep>
   <time name="dav">  184.53  184.38</time>
   <time name="total">  184.54  184.39</time>
   <energy>
    <i name="e_fr_energy">   1001.58165156 </i>
    <i name="e_wo_entrp">   1001.58090465 </i>
    <i name="e_0_energy">   1001.58140259 </i>
   </energy>
  </scstep>
  <scstep>
   <time name="dav">  187.16  187.01</time>
   <time name="total">  187.17  188.78</time>
   <energy>
    <i name="e_fr_energy">   -345.60822471 </i>
    <i name="e_wo_entrp">   -345.79245391 </i>
    <i name="e_0_energy">   -345.66963444 </i>
   </energy>
  </scstep>
  <scstep>
   <time name="dav">  194.78  194.65</time>
   <time name="total">  194.78  194.66</time>
   <energy>
    <i name="e_fr_energy">   -424.03921961 </i>
    <i name="e_wo_entrp">   -424.21921462 </i>
    <i name="e_0_energy">   -424.09921794 </i>
   </energy>
  </scstep>
  <scstep>
   <time name="dav">  193.87  193.72</time>
   <time name="total">  206.19  206.03</time>
   <energy>
    <i name="e_fr_energy">   -425.39508425 </i>
    <i name="e_wo_entrp">   -425.57513488 </i>
    <i name="e_0_energy">   -425.45510113 </i>
   </energy>
  </scstep>
  <scstep>
   <time name="dav">  192.52  192.41</time>
   <time name="total">  205.61  205.49</time>
   <energy>
    <i name="e_fr_energy">   -402.55247707 </i>
    <i name="e_wo_entrp">   -402.05439624 </i>
    <i name="e_0_energy">   -402.38645013 </i>
   </energy>
  </scstep>
  <scstep>
   <time name="dav">  191.29  191.14</time>
   <time name="total">  204.71  204.55</time>
   <energy>
    <i name="e_fr_energy">   -363.65471958 </i>
    <i name="e_wo_entrp">   -363.59516909 </i>
    <i name="e_0_energy">   -363.63486941 </i>
   </energy>
  </scstep>
  <scstep>
   <time name="dav">  193.67  193.52</time>
   <time name="total">  207.01  206.84</time>
   <energy>
    <i name="e_fr_energy">   -363.83266605 </i>
    <i name="e_wo_entrp">   -363.79077047 </i>
    <i name="e_0_energy">   -363.81870086 </i>
   </energy>
  </scstep>
  <scstep>
   <time name="dav">  198.02  197.86</time>
   <time name="total">  211.23  211.06</time>
   <energy>
    <i name="e_fr_energy">   -363.69751467 </i>
    <i name="e_wo_entrp">   -363.64719947 </i>
    <i name="e_0_energy">   -363.68074294 </i>
   </energy>
  </scstep>
  <scstep>
   <time name="dav">  204.50  204.36</time>
   <time name="total">  217.70  217.55</time>
   <energy>
    <i name="e_fr_energy">   -363.70443394 </i>
    <i name="e_wo_entrp">   -363.65481339 </i>
    <i name="e_0_energy">   -363.68789376 </i>
   </energy>
  </scstep>
  <scstep>
   <time name="dav">  193.66  193.51</time>
   <time name="total">  206.95  206.79</time>
   <energy>
    <i name="e_fr_energy">   -363.70876670 </i>
    <i name="e_wo_entrp">   -363.66038474 </i>
    <i name="e_0_energy">   -363.69263938 </i>
   </energy>
  </scstep>
  <scstep>
   <time name="dav">  198.10  197.94</time>
   <time name="total">  211.36  211.20</time>
   <energy>
    <i name="e_fr_energy">   -363.70878255 </i>
    <i name="e_wo_entrp">   -363.65899317 </i>
    <i name="e_0_energy">   -363.69218609 </i>
   </energy>
  </scstep>
  <scstep>
   <time name="dav">  198.70  198.54</time>
   <time name="total">  211.98  211.81</time>
   <energy>
    <i name="e_fr_energy">   -363.70878632 </i>
    <i name="e_wo_entrp">   -363.65883535 </i>
    <i name="e_0_energy">   -363.69213599 </i>
   </energy>
  </scstep>
  <scstep>
   <time name="dav">  159.15  159.03</time>
   <time name="total">  172.44  172.31</time>
   <energy>
    <i name="e_fr_energy">   -363.70876593 </i>
    <i name="e_wo_entrp">   -363.65890621 </i>
    <i name="e_0_energy">   -363.69214602 </i>
   </energy>
  </scstep>
  <scstep>
   <time name="dav">  136.86  136.79</time>
   <time name="total">  150.11  150.03</time>
   <energy>
    <i name="e_fr_energy">   -363.70875890 </i>
    <i name="e_wo_entrp">   -363.65895992 </i>
    <i name="e_0_energy">   -363.69215924 </i>
   </energy>
  </scstep>
  <scstep>
   <time name="dav">  118.82  118.72</time>
   <time name="total">  119.41  119.31</time>
   <energy>
    <i name="alphaZ">   8628.10280496 </i>
    <i name="ewald">-146823.96742904 </i>
    <i name="hartreedc"> -63567.73542326 </i>
    <i name="XCdc">   5604.86758556 </i>
    <i name="pawpsdc"> 170582.20702861 </i>
    <i name="pawaedc">-179622.04940457 </i>
    <i name="eentropy">     -0.04979813 </i>
    <i name="bandstr"> -19181.73628991 </i>
    <i name="atom"> 224016.65216645 </i>
    <i name="e_fr_energy">   -363.70875933 </i>
    <i name="e_wo_entrp">   -363.65896121 </i>
    <i name="e_0_energy">   -363.69215996 </i>
   </energy>
  </scstep>
  <structure>
   <crystal>
    <varray name="basis" >
     <v>       0.00000000       7.36725000       7.36725000 </v>
     <v>       7.36725000       0.00000000       7.36725000 </v>
     <v>       7.36725000       7.36725000       0.00000000 </v>
    </varray>
    <i name="volume">    799.73521152 </i>
    <varray name="rec_basis" >
     <v>      -0.06786793       0.06786793       0.06786793 </v>
     <v>       0.06786793      -0.06786793       0.06786793 </v>
     <v>       0.06786793       0.06786793      -0.06786793 </v>
    </varray>
   </crystal>
   <varray name="positions" >
    <v>       0.00000000       0.00000000       0.00000000 </v>
    <v>       0.00000000       0.00000000       0.25000000 </v>
    <v>       0.00000000       0.00000000       0.50000000 </v>
    <v>       0.00000000       0.00000000       0.75000000 </v>
    <v>       0.00000000       0.25000000       0.00000000 </v>
    <v>       0.00000000       0.25000000       0.25000000 </v>
    <v>       0.00000000       0.25000000       0.50000000 </v>
    <v>       0.00000000       0.25000000       0.75000000 </v>
    <v>       0.00000000       0.50000000       0.00000000 </v>
    <v>       0.00000000       0.50000000       0.25000000 </v>
    <v>       0.00000000       0.50000000       0.50000000 </v>
    <v>       0.00000000       0.50000000       0.75000000 </v>
    <v>       0.00000000       0.75000000       0.00000000 </v>
    <v>       0.00000000       0.75000000       0.25000000 </v>
    <v>       0.00000000       0.75000000       0.50000000 </v>
    <v>       0.00000000       0.75000000       0.75000000 </v>
    <v>       0.25000000       0.00000000       0.00000000 </v>
    <v>       0.25000000       0.00000000       0.25000000 </v>
    <v>       0.25000000       0.00000000       0.50000000 </v>
    <v>       0.25000000       0.00000000       0.75000000 </v>
    <v>       0.25000000       0.25000000       0.00000000 </v>
    <v>       0.25000000       0.25000000       0.25000000 </v>
    <v>       0.25000000       0.25000000       0.50000000 </v>
    <v>       0.25000000       0.25000000       0.75000000 </v>
    <v>       0.25000000       0.50000000       0.00000000 </v>
    <v>       0.25000000       0.50000000       0.25000000 </v>
    <v>       0.25000000       0.50000000       0.50000000 </v>
    <v>       0.25000000       0.50000000       0.75000000 </v>
    <v>       0.25000000       0.75000000       0.00000000 </v>
    <v>       0.25000000       0.75000000       0.25000000 </v>
    <v>       0.25000000       0.75000000       0.50000000 </v>
    <v>       0.25000000       0.75000000       0.75000000 </v>
    <v>       0.50000000       0.00000000       0.00000000 </v>
    <v>       0.50000000       0.00000000       0.25000000 </v>
    <v>       0.50000000       0.00000000       0.50000000 </v>
    <v>       0.50000000       0.00000000       0.75000000 </v>
    <v>       0.50000000       0.25000000       0.00000000 </v>
    <v>       0.50000000       0.25000000       0.25000000 </v>
    <v>       0.50000000       0.25000000       0.50000000 </v>
    <v>       0.50000000       0.25000000       0.75000000 </v>
    <v>       0.50000000       0.50000000       0.00000000 </v>
    <v>       0.50000000       0.50000000       0.25000000 </v>
    <v>       0.50000000       0.50000000       0.50000000 </v>
    <v>       0.50000000       0.50000000       0.75000000 </v>
    <v>       0.50000000       0.75000000       0.00000000 </v>
    <v>       0.50000000       0.75000000       0.25000000 </v>
    <v>       0.50000000       0.75000000       0.50000000 </v>
    <v>       0.50000000       0.75000000       0.75000000 </v>
    <v>       0.75000000       0.00000000       0.00000000 </v>
    <v>       0.75000000       0.00000000       0.25000000 </v>
    <v>       0.75000000       0.00000000       0.50000000 </v>
    <v>       0.75000000       0.00000000       0.75000000 </v>
    <v>       0.75000000       0.25000000       0.00000000 </v>
    <v>       0.75000000       0.25000000       0.25000000 </v>
    <v>       0.75000000       0.25000000       0.50000000 </v>
    <v>       0.75000000       0.25000000       0.75000000 </v>
    <v>       0.75000000       0.50000000       0.00000000 </v>
    <v>       0.75000000       0.50000000       0.25000000 </v>
    <v>       0.75000000       0.50000000       0.50000000 </v>
    <v>       0.75000000       0.50000000       0.75000000 </v>
    <v>       0.75000000       0.75000000       0.00000000 </v>
    <v>       0.75000000       0.75000000       0.25000000 </v>
    <v>       0.75000000       0.75000000       0.50000000 </v>
    <v>       0.75000000       0.75000000       0.75000000 </v>
   </varray>
  </structure>
  <varray name="forces" >
   <v>      -0.00000000       0.00000000      -0.00000000 </v>
   <v>       0.00000000       0.00000000       0.00000000 </v>
   <v>       0.00000000       0.00000000      -0.00000000 </v>
   <v>       0.00000000      -0.00000000       0.00000000 </v>
   <v>       0.00000000      -0.00000000      -0.00000000 </v>
   <v>       0.00000000      -0.00000000      -0.00000000 </v>
   <v>       0.00000000       0.00000000      -0.00000000 </v>
   <v>      -0.00000000      -0.00000000       0.00000000 </v>
   <v>       0.00000000       0.00000000       0.00000000 </v>
   <v>      -0.00000000       0.00000000      -0.00000000 </v>
   <v>       0.00000000      -0.00000000       0.00000000 </v>
   <v>      -0.00000000       0.00000000       0.00000000 </v>
   <v>      -0.00000000      -0.00000000      -0.00000000 </v>
   <v>      -0.00000000      -0.00000000       0.00000000 </v>
   <v>      -0.00000000       0.00000000       0.00000000 </v>
   <v>       0.00000000       0.00000000       0.00000000 </v>
   <v>      -0.00000000      -0.00000000      -0.00000000 </v>
   <v>       0.00000000       0.00000000      -0.00000000 </v>
   <v>       0.00000000      -0.00000000      -0.00000000 </v>
   <v>      -0.00000000      -0.00000000       0.00000000 </v>
   <v>       0.00000000      -0.00000000      -0.00000000 </v>
   <v>       0.00000000       0.00000000       0.00000000 </v>
   <v>       0.00000000       0.00000000       0.00000000 </v>
   <v>      -0.00000000      -0.00000000       0.00000000 </v>
   <v>       0.00000000       0.00000000      -0.00000000 </v>
   <v>      -0.00000000      -0.00000000      -0.00000000 </v>
   <v>       0.00000000       0.00000000      -0.00000000 </v>
   <v>      -0.00000000       0.00000000       0.00000000 </v>
   <v>       0.00000000       0.00000000       0.00000000 </v>
   <v>      -0.00000000      -0.00000000      -0.00000000 </v>
   <v>      -0.00000000      -0.00000000       0.00000000 </v>
   <v>      -0.00000000       0.00000000       0.00000000 </v>
   <v>      -0.00000000       0.00000000      -0.00000000 </v>
   <v>       0.00000000      -0.00000000      -0.00000000 </v>
   <v>       0.00000000       0.00000000      -0.00000000 </v>
   <v>      -0.00000000      -0.00000000      -0.00000000 </v>
   <v>       0.00000000      -0.00000000      -0.00000000 </v>
   <v>      -0.00000000      -0.00000000       0.00000000 </v>
   <v>       0.00000000       0.00000000      -0.00000000 </v>
   <v>      -0.00000000      -0.00000000       0.00000000 </v>
   <v>       0.00000000       0.00000000       0.00000000 </v>
   <v>      -0.00000000      -0.00000000      -0.00000000 </v>
   <v>       0.00000000       0.00000000      -0.00000000 </v>
   <v>      -0.00000000       0.00000000       0.00000000 </v>
   <v>      -0.00000000      -0.00000000      -0.00000000 </v>
   <v>      -0.00000000      -0.00000000       0.00000000 </v>
   <v>      -0.00000000      -0.00000000       0.00000000 </v>
   <v>       0.00000000       0.00000000       0.00000000 </v>
   <v>      -0.00000000       0.00000000       0.00000000 </v>
   <v>      -0.00000000      -0.00000000      -0.00000000 </v>
   <v>       0.00000000       0.00000000      -0.00000000 </v>
   <v>       0.00000000      -0.00000000       0.00000000 </v>
   <v>       0.00000000       0.00000000      -0.00000000 </v>
   <v>      -0.00000000      -0.00000000      -0.00000000 </v>
   <v>       0.00000000       0.00000000      -0.00000000 </v>
   <v>      -0.00000000      -0.00000000       0.00000000 </v>
   <v>      -0.00000000       0.00000000      -0.00000000 </v>
   <v>      -0.00000000      -0.00000000      -0.00000000 </v>
   <v>       0.00000000       0.00000000       0.00000000 </v>
   <v>      -0.00000000       0.00000000       0.00000000 </v>
   <v>      -0.00000000      -0.00000000      -0.00000000 </v>
   <v>      -0.00000000      -0.00000000      -0.00000000 </v>
   <v>       0.00000000       0.00000000       0.00000000 </v>
   <v>       0.00000000      -0.00000000       0.00000000 </v>
  </varray>
  <varray name="stress" >
   <v>    -198.30421188      -0.00000000      -0.00000000 </v>
   <v>      -0.00000000    -198.30421188      -0.00000000 </v>
   <v>       0.00000000      -0.00000000    -198.30421188 </v>
  </varray>
  <energy>
   <i name="e_fr_energy">   -363.70875933 </i>
   <i name="e_wo_entrp">   -363.69215996 </i>
   <i name="e_0_energy">     -0.04979813 </i>
  </energy>
  <kpoints>
   <generation param="Gamma">
    <v type="int" name="divisions">       3        3        3 </v>
    <v name="usershift">      0.00000000       0.00000000       0.00000000 </v>
    <v name="genvec1">      0.33333333       0.00000000       0.00000000 </v>
    <v name="genvec2">      0.00000000       0.33333333       0.00000000 </v>
    <v name="genvec3">      0.00000000       0.00000000       0.33333333 </v>
    <v name="shift">      0.00000000       0.00000000       0.00000000 </v>
   </generation>
   <varray name="kpointlist" >
    <v>       0.00000000       0.00000000       0.00000000 </v>
    <v>       0.33333333       0.00000000       0.00000000 </v>
    <v>       0.33333333       0.33333333       0.00000000 </v>
    <v>      -0.33333333       0.33333333       0.00000000 </v>
    <v>       0.00000000       0.33333333       0.33333333 </v>
    <v>      -0.33333333       0.33333333       0.33333333 </v>
   </varray>
   <varray name="weights" >
    <v>       0.03703704 </v>
    <v>       0.29629630 </v>
    <v>       0.14814815 </v>
    <v>       0.29629630 </v>
    <v>       0.07407407 </v>
    <v>       0.14814815 </v>
   </varray>
  </kpoints>
  <time name="totalsc"> 3351.50 3354.24</time>
 </calculation>
 <calculation>
  <scstep>
   <time name="dav">  347.28  347.08</time>
   <time name="total">  365.09  364.88</time>
   <energy>
    <i name="alphaZ">   8628.10280496 </i>
    <i name="ewald">-146823.83058538 </i>
    <i name="hartreedc"> -63567.86622756 </i>
    <i name="XCdc">   5604.86815903 </i>
    <i name="pawpsdc"> 170582.02491369 </i>
    <i name="pawaedc">-179621.87595512 </i>
    <i name="eentropy">     -0.04977164 </i>
    <i name="bandstr"> -19181.63740894 </i>
    <i name="atom"> 224016.65216645 </i>
    <i name="e_fr_energy">   -363.61190451 </i>
    <i name="e_wo_entrp">   -363.56213287 </i>
    <i name="e_0_energy">   -363.59531396 </i>
   </energy>
  </scstep>
  <scstep>
   <time name="dav">  283.89  283.70</time>
   <time name="total">  301.48  301.27</time>
   <energy>
    <i name="e_fr_energy">   -363.70815184 </i>
    <i name="e_wo_entrp">   -363.65836199 </i>
    <i name="e_0_energy">   -363.69155522 </i>
   </energy>
  </scstep>
  <scstep>
   <time name="dav">  338.18  338.08</time>
   <time name="total">  355.77  355.65</time>
   <energy>
    <i name="e_fr_energy">   -363.71207870 </i>
    <i name="e_wo_entrp">   -363.66220847 </i>
    <i name="e_0_energy">   -363.69545529 </i>
   </energy>
  </scstep>
  <scstep>
   <time name="dav">  312.97  312.73</time>
   <time name="total">  330.59  330.33</time>
   <energy>
    <i name="e_fr_energy">   -363.71006706 </i>
    <i name="e_wo_entrp">   -363.66027951 </i>
    <i name="e_0_energy">   -363.69347121 </i>
   </energy>
  </scstep>
  <scstep>
   <time name="dav">  298.24  298.03</time>
   <time name="total">  315.84  315.60</time>
   <energy>
    <i name="e_fr_energy">   -363.70835320 </i>
    <i name="e_wo_entrp">   -363.65855282 </i>
    <i name="e_0_energy">   -363.69175307 </i>
   </energy>
  </scstep>
  <scstep>
   <time name="dav">  346.04  345.80</time>
   <time name="total">  363.64  363.38</time>
   <energy>
    <i name="e_fr_energy">   -363.70834294 </i>
    <i name="e_wo_entrp">   -363.65854218 </i>
    <i name="e_0_energy">   -363.69174269 </i>
   </energy>
  </scstep>
  <scstep>
   <time name="dav">  303.09  302.91</time>
   <time name="total">  319.98  319.79</time>
   <energy>
    <i name="e_fr_energy">   -363.70828477 </i>
    <i name="e_wo_entrp">   -363.65848382 </i>
    <i name="e_0_energy">   -363.69168445 </i>
   </energy>
  </scstep>
  <scstep>
   <time name="dav">  302.60  302.36</time>
   <time name="total">  319.49  319.24</time>
   <energy>
    <i name="e_fr_energy">   -363.70826431 </i>
    <i name="e_wo_entrp">   -363.65846264 </i>
    <i name="e_0_energy">   -363.69166375 </i>
   </energy>
  </scstep>
  <scstep>
   <time name="dav">  301.94  301.78</time>
   <time name="total">  318.85  318.67</time>
   <energy>
    <i name="e_fr_energy">   -363.70825533 </i>
    <i name="e_wo_entrp">   -363.65845737 </i>
    <i name="e_0_energy">   -363.69165601 </i>
   </energy>
  </scstep>
  <scstep>
   <time name="dav">  344.94  344.66</time>
   <time name="total">  361.82  361.53</time>
   <energy>
    <i name="e_fr_energy">   -363.70813321 </i>
    <i name="e_wo_entrp">   -363.65833595 </i>
    <i name="e_0_energy">   -363.69153412 </i>
   </energy>
  </scstep>
  <scstep>
   <time name="dav">  374.90  374.65</time>
   <time name="total">  391.81  391.54</time>
   <energy>
    <i name="e_fr_energy">   -363.70813811 </i>
    <i name="e_wo_entrp">   -363.65834309 </i>
    <i name="e_0_energy">   -363.69153977 </i>
   </energy>
  </scstep>
  <scstep>
   <time name="dav">  304.82  304.66</time>
   <time name="total">  322.50  322.33</time>
   <energy>
    <i name="e_fr_energy">   -363.70813218 </i>
    <i name="e_wo_entrp">   -363.65833891 </i>
    <i name="e_0_energy">   -363.69153442 </i>
   </energy>
  </scstep>
  <scstep>
   <time name="dav">  284.51  284.28</time>
   <time name="total">  302.27  302.03</time>
   <energy>
    <i name="e_fr_energy">   -363.70812973 </i>
    <i name="e_wo_entrp">   -363.65833727 </i>
    <i name="e_0_energy">   -363.69153224 </i>
   </energy>
  </scstep>
  <scstep>
   <time name="dav">  184.65  184.50</time>
   <time name="total">  185.23  185.09</time>
   <energy>
    <i name="alphaZ">   8628.10280496 </i>
    <i name="ewald">-146823.83058538 </i>
    <i name="hartreedc"> -63567.84846216 </i>
    <i name="XCdc">   5604.86728057 </i>
    <i name="pawpsdc"> 170581.83943765 </i>
    <i name="pawaedc">-179621.69056823 </i>
    <i name="eentropy">     -0.04979516 </i>
    <i name="bandstr"> -19181.75040890 </i>
    <i name="atom"> 224016.65216645 </i>
    <i name="e_fr_energy">   -363.70813019 </i>
    <i name="e_wo_entrp">   -363.65833504 </i>
    <i name="e_0_energy">   -363.69153181 </i>
   </energy>
  </scstep>
  <structure>
   <crystal>
    <varray name="basis" >
     <v>       0.00000000       7.36725000       7.36725000 </v>
     <v>       7.36725000       0.00000000       7.36725000 </v>
     <v>       7.36725000       7.36725000       0.00000000 </v>
    </varray>
    <i name="volume">    799.73521152 </i>
    <varray name="rec_basis" >
     <v>      -0.06786793       0.06786793       0.06786793 </v>
     <v>       0.06786793      -0.06786793       0.06786793 </v>
     <v>       0.06786793       0.06786793      -0.06786793 </v>
    </varray>
   </crystal>
   <varray name="positions" >
    <v>      -0.00101802       0.00101802       0.00101802 </v>
    <v>       0.00000000       0.00000000       0.25000000 </v>
    <v>       0.00000000       0.00000000       0.50000000 </v>
    <v>       0.00000000       0.00000000       0.75000000 </v>
    <v>       0.00000000       0.25000000       0.00000000 </v>
    <v>       0.00000000       0.25000000       0.25000000 </v>
    <v>       0.00000000       0.25000000       0.50000000 </v>
    <v>       0.00000000       0.25000000       0.75000000 </v>
    <v>       0.00000000       0.50000000       0.00000000 </v>
    <v>       0.00000000       0.50000000       0.25000000 </v>
    <v>       0.00000000       0.50000000       0.50000000 </v>
    <v>       0.00000000       0.50000000       0.75000000 </v>
    <v>       0.00000000       0.75000000       0.00000000 </v>
    <v>       0.00000000       0.75000000       0.25000000 </v>
    <v>       0.00000000       0.75000000       0.50000000 </v>
    <v>       0.00000000       0.75000000       0.75000000 </v>
    <v>       0.25000000       0.00000000       0.00000000 </v>
    <v>       0.25000000       0.00000000       0.25000000 </v>
    <v>       0.25000000       0.00000000       0.50000000 </v>
    <v>       0.25000000       0.00000000       0.75000000 </v>
    <v>       0.25000000       0.25000000       0.00000000 </v>
    <v>       0.25000000       0.25000000       0.25000000 </v>
    <v>       0.25000000       0.25000000       0.50000000 </v>
    <v>       0.25000000       0.25000000       0.75000000 </v>
    <v>       0.25000000       0.50000000       0.00000000 </v>
    <v>       0.25000000       0.50000000       0.25000000 </v>
    <v>       0.25000000       0.50000000       0.50000000 </v>
    <v>       0.25000000       0.50000000       0.75000000 </v>
    <v>       0.25000000       0.75000000       0.00000000 </v>
    <v>       0.25000000       0.75000000       0.25000000 </v>
    <v>       0.25000000       0.75000000       0.50000000 </v>
    <v>       0.25000000       0.75000000       0.75000000 </v>
    <v>       0.50000000       0.00000000       0.00000000 </v>
    <v>       0.50000000       0.00000000       0.25000000 </v>
    <v>       0.50000000       0.00000000       0.50000000 </v>
    <v>       0.50000000       0.00000000       0.75000000 </v>
    <v>       0.50000000       0.25000000       0.00000000 </v>
    <v>       0.50000000       0.25000000       0.25000000 </v>
    <v>       0.50000000       0.25000000       0.50000000 </v>
    <v>       0.50000000       0.25000000       0.75000000 </v>
    <v>       0.50000000       0.50000000       0.00000000 </v>
    <v>       0.50000000       0.50000000       0.25000000 </v>
    <v>       0.50000000       0.50000000       0.50000000 </v>
    <v>       0.50000000       0.50000000       0.75000000 </v>
    <v>       0.50000000       0.75000000       0.00000000 </v>
    <v>       0.50000000       0.75000000       0.25000000 </v>
    <v>       0.50000000       0.75000000       0.50000000 </v>
    <v>       0.50000000       0.75000000       0.75000000 </v>
    <v>       0.75000000       0.00000000       0.00000000 </v>
    <v>       0.75000000       0.00000000       0.25000000 </v>
    <v>       0.75000000       0.00000000       0.50000000 </v>
    <v>       0.75000000       0.00000000       0.75000000 </v>
    <v>       0.75000000       0.25000000       0.00000000 </v>
    <v>       0.75000000       0.25000000       0.25000000 </v>
    <v>       0.75000000       0.25000000       0.50000000 </v>
    <v>       0.75000000       0.25000000       0.75000000 </v>
    <v>       0.75000000       0.50000000       0.00000000 </v>
    <v>       0.75000000       0.50000000       0.25000000 </v>
    <v>       0.75000000       0.50000000       0.50000000 </v>
    <v>       0.75000000       0.50000000       0.75000000 </v>
    <v>       0.75000000       0.75000000       0.00000000 </v>
    <v>       0.75000000       0.75000000       0.25000000 </v>
    <v>       0.75000000       0.75000000       0.50000000 </v>
    <v>       0.75000000       0.75000000       0.75000000 </v>
   </varray>
  </structure>
  <varray name="forces" >
   <v>      -0.08257338      -0.00000000      -0.00000000 </v>
   <v>       0.00794857       0.00816372      -0.00000000 </v>
   <v>       0.00028163       0.00011109      -0.00000000 </v>
   <v>       0.00742875       0.00755782      -0.00000000 </v>
   <v>       0.00794857      -0.00000000       0.00816372 </v>
   <v>       0.00107321       0.00056077       0.00056077 </v>
   <v>       0.00037030       0.00054011      -0.00029387 </v>
   <v>       0.00071944       0.00003277      -0.00003277 </v>
   <v>       0.00028163      -0.00000000       0.00011109 </v>
   <v>       0.00037030      -0.00029387       0.00054011 </v>
   <v>       0.00014831      -0.00000000      -0.00000000 </v>
   <v>       0.00037247      -0.00027794       0.00060053 </v>
   <v>       0.00742875      -0.00000000       0.00755782 </v>
   <v>       0.00071944      -0.00003277       0.00003277 </v>
   <v>       0.00037247       0.00060053      -0.00027794 </v>
   <v>       0.00100242       0.00057097       0.00057097 </v>
   <v>       0.00071944      -0.00003277      -0.00003277 </v>
   <v>       0.00037247       0.00060053       0.00027794 </v>
   <v>       0.00100242       0.00057097      -0.00057097 </v>
   <v>       0.00742875      -0.00000000      -0.00755782 </v>
   <v>       0.00037247       0.00027794       0.00060053 </v>
   <v>       0.00031770      -0.00000000      -0.00000000 </v>
   <v>       0.00037030       0.00029387      -0.00054011 </v>
   <v>      -0.00048229      -0.00000000       0.00002644 </v>
   <v>       0.00100242      -0.00057097       0.00057097 </v>
   <v>       0.00037030      -0.00054011       0.00029387 </v>
   <v>      -0.00006408       0.00000334       0.00000334 </v>
   <v>       0.00012593      -0.00000000      -0.00008263 </v>
   <v>       0.00742875      -0.00755782      -0.00000000 </v>
   <v>      -0.00048229       0.00002644      -0.00000000 </v>
   <v>       0.00012593      -0.00008263      -0.00000000 </v>
   <v>       0.00169836      -0.00000000      -0.00000000 </v>
   <v>       0.00014831      -0.00000000      -0.00000000 </v>
   <v>       0.00037247      -0.00027794      -0.00060053 </v>
   <v>       0.00028163      -0.00000000      -0.00011109 </v>
   <v>       0.00037030      -0.00029387      -0.00054011 </v>
   <v>       0.00037247      -0.00060053      -0.00027794 </v>
   <v>       0.00107321      -0.00056077      -0.00056077 </v>
   <v>       0.00010949      -0.00000000       0.00008666 </v>
   <v>      -0.00006408      -0.00000334       0.00000334 </v>
   <v>       0.00028163      -0.00011109      -0.00000000 </v>
   <v>       0.00010949       0.00008666      -0.00000000 </v>
   <v>      -0.00028269      -0.00000000      -0.00000000 </v>
   <v>       0.00012593       0.00008263      -0.00000000 </v>
   <v>       0.00037030      -0.00054011      -0.00029387 </v>
   <v>      -0.00006408       0.00000334      -0.00000334 </v>
   <v>       0.00012593      -0.00000000       0.00008263 </v>
   <v>       0.00100242      -0.00057097      -0.00057097 </v>
   <v>       0.00071944       0.00003277       0.00003277 </v>
   <v>       0.00794857      -0.00000000      -0.00816372 </v>
   <v>       0.00107321       0.00056077      -0.00056077 </v>
   <v>       0.00037030       0.00054011       0.00029387 </v>
   <v>       0.00794857      -0.00816372      -0.00000000 </v>
   <v>       0.00171129      -0.00000000      -0.00000000 </v>
   <v>       0.00010949      -0.00008666      -0.00000000 </v>
   <v>      -0.00048229      -0.00002644      -0.00000000 </v>
   <v>       0.00107321      -0.00056077       0.00056077 </v>
   <v>       0.00010949      -0.00000000      -0.00008666 </v>
   <v>      -0.00006408      -0.00000334      -0.00000334 </v>
   <v>       0.00037247      -0.00060053       0.00027794 </v>
   <v>       0.00037030       0.00029387       0.00054011 </v>
   <v>      -0.00048229      -0.00000000      -0.00002644 </v>
   <v>       0.00037247       0.00027794      -0.00060053 </v>
   <v>       0.00031770      -0.00000000      -0.00000000 </v>
  </varray>
  <varray name="stress" >
   <v>    -198.27279763       0.00000000      -0.00000000 </v>
   <v>       0.00000000    -198.27695234       0.00000000 </v>
   <v>       0.00000000       0.00000000    -198.27695234 </v>
  </varray>
  <energy>
   <i name="e_fr_energy">   -363.70813019 </i>
   <i name="e_wo_entrp">   -363.69153181 </i>
   <i name="e_0_energy">     -0.04979516 </i>
  </energy>
  <kpoints>
   <generation param="Gamma">
    <v type="int" name="divisions">       3        3        3 </v>
    <v name="usershift">      0.00000000       0.00000000       0.00000000 </v>
    <v name="genvec1">      0.33333333       0.00000000       0.00000000 </v>
    <v name="genvec2">      0.00000000       0.33333333       0.00000000 </v>
    <v name="genvec3">      0.00000000       0.00000000       0.33333333 </v>
    <v name="shift">      0.00000000       0.00000000       0.00000000 </v>
   </generation>
   <varray name="kpointlist" >
    <v>       0.00000000       0.00000000       0.00000000 </v>
    <v>       0.33333333       0.00000000       0.00000000 </v>
    <v>       0.33333333       0.33333333       0.00000000 </v>
    <v>      -0.33333333       0.33333333       0.00000000 </v>
    <v>       0.00000000       0.33333333       0.33333333 </v>
    <v>      -0.33333333       0.33333333       0.33333333 </v>
   </varray>
   <varray name="weights" >
    <v>       0.03703704 </v>
    <v>       0.29629630 </v>
    <v>       0.14814815 </v>
    <v>       0.29629630 </v>
    <v>       0.07407407 </v>
    <v>       0.14814815 </v>
   </varray>
  </kpoints>
  <time name="totalsc"> 4909.03 4905.77</time>
 </calculation>
 <calculation>
  <scstep>
   <time name="dav">  345.76  345.52</time>
   <time name="total">  363.59  363.33</time>
   <energy>
    <i name="alphaZ">   8628.10280496 </i>
    <i name="ewald">-146823.83058538 </i>
    <i name="hartreedc"> -63567.89123307 </i>
    <i name="XCdc">   5604.86969396 </i>
    <i name="pawpsdc"> 170581.83743159 </i>
    <i name="pawaedc">-179621.68869293 </i>
    <i name="eentropy">     -0.04970010 </i>
    <i name="bandstr"> -19181.35949515 </i>
    <i name="atom"> 224016.65216645 </i>
    <i name="e_fr_energy">   -363.35760966 </i>
    <i name="e_wo_entrp">   -363.30790957 </i>
    <i name="e_0_energy">   -363.34104297 </i>
   </energy>
  </scstep>
  <scstep>
   <time name="dav">  283.70  283.47</time>
   <time name="total">  301.45  301.20</time>
   <energy>
    <i name="e_fr_energy">   -363.72584268 </i>
    <i name="e_wo_entrp">   -363.67643831 </i>
    <i name="e_0_energy">   -363.70937455 </i>
   </energy>
  </scstep>
  <scstep>
   <time name="dav">  330.10  329.84</time>
   <time name="total">  347.87  347.58</time>
   <energy>
    <i name="e_fr_energy">   -363.71393847 </i>
    <i name="e_wo_entrp">   -363.66391729 </i>
    <i name="e_0_energy">   -363.69726474 </i>
   </energy>
  </scstep>
  <scstep>
   <time name="dav">  328.33  328.12</time>
   <time name="total">  346.10  345.87</time>
   <energy>
    <i name="e_fr_energy">   -363.72218978 </i>
    <i name="e_wo_entrp">   -363.67243723 </i>
    <i name="e_0_energy">   -363.70560560 </i>
   </energy>
  </scstep>
  <scstep>
   <time name="dav">  295.09  294.85</time>
   <time name="total">  312.88  312.64</time>
   <energy>
    <i name="e_fr_energy">   -363.70909393 </i>
    <i name="e_wo_entrp">   -363.65925408 </i>
    <i name="e_0_energy">   -363.69248065 </i>
   </energy>
  </scstep>
  <scstep>
   <time name="dav">  338.44  338.17</time>
   <time name="total">  356.21  361.40</time>
   <energy>
    <i name="e_fr_energy">   -363.70882713 </i>
    <i name="e_wo_entrp">   -363.65899773 </i>
    <i name="e_0_energy">   -363.69221733 </i>
   </energy>
  </scstep>
  <scstep>
   <time name="dav">  304.22  304.01</time>
   <time name="total">  322.04  321.82</time>
   <energy>
    <i name="e_fr_energy">   -363.70870449 </i>
    <i name="e_wo_entrp">   -363.65888068 </i>
    <i name="e_0_energy">   -363.69209655 </i>
   </energy>
  </scstep>
  <scstep>
   <time name="dav">  301.87  301.63</time>
   <time name="total">  319.71  319.46</time>
   <energy>
    <i name="e_fr_energy">   -363.70852391 </i>
    <i name="e_wo_entrp">   -363.65871137 </i>
    <i name="e_0_energy">   -363.69191973 </i>
   </energy>
  </scstep>
  <scstep>
   <time name="dav">  301.05  300.80</time>
   <time name="total">  318.87  318.61</time>
   <energy>
    <i name="e_fr_energy">   -363.70862487 </i>
    <i name="e_wo_entrp">   -363.65882091 </i>
    <i name="e_0_energy">   -363.69202355 </i>
   </energy>
  </scstep>
  <scstep>
   <time name="dav">  338.67  338.41</time>
   <time name="total">  356.51  356.24</time>
   <energy>
    <i name="e_fr_energy">   -363.70820201 </i>
    <i name="e_wo_entrp">   -363.65842012 </i>
    <i name="e_0_energy">   -363.69160805 </i>
   </energy>
  </scstep>
  <scstep>
   <time name="dav">  349.76  349.48</time>
   <time name="total">  367.61  367.31</time>
   <energy>
    <i name="e_fr_energy">   -363.70813933 </i>
    <i name="e_wo_entrp">   -363.65835601 </i>
    <i name="e_0_energy">   -363.69154489 </i>
   </energy>
  </scstep>
  <scstep>
   <time name="dav">  354.69  354.48</time>
   <time name="total">  372.52  372.29</time>
   <energy>
    <i name="e_fr_energy">   -363.70815616 </i>
    <i name="e_wo_entrp">   -363.65836577 </i>
    <i name="e_0_energy">   -363.69155937 </i>
   </energy>
  </scstep>
  <scstep>
   <time name="dav">  306.23  305.99</time>
   <time name="total">  324.06  323.81</time>
   <energy>
    <i name="e_fr_energy">   -363.70812993 </i>
    <i name="e_wo_entrp">   -363.65833471 </i>
    <i name="e_0_energy">   -363.69153152 </i>
   </energy>
  </scstep>
  <scstep>
   <time name="dav">  326.31  326.08</time>
   <time name="total">  344.14  343.89</time>
   <energy>
    <i name="e_fr_energy">   -363.70813765 </i>
    <i name="e_wo_entrp">   -363.65834469 </i>
    <i name="e_0_energy">   -363.69153999 </i>
   </energy>
  </scstep>
  <scstep>
   <time name="dav">  286.19  285.96</time>
   <time name="total">  304.03  303.79</time>
   <energy>
    <i name="e_fr_energy">   -363.70813007 </i>
    <i name="e_wo_entrp">   -363.65833661 </i>
    <i name="e_0_energy">   -363.69153225 </i>
   </energy>
  </scstep>
  <scstep>
   <time name="dav">  182.55  182.44</time>
   <time name="total">  183.14  183.03</time>
   <energy>
    <i name="alphaZ">   8628.10280496 </i>
    <i name="ewald">-146823.83058538 </i>
    <i name="hartreedc"> -63567.85414717 </i>
    <i name="XCdc">   5604.86747987 </i>
    <i name="pawpsdc"> 170581.84829780 </i>
    <i name="pawaedc">-179621.70159269 </i>
    <i name="eentropy">     -0.04979312 </i>
    <i name="bandstr"> -19181.74276086 </i>
    <i name="atom"> 224016.65216645 </i>
    <i name="e_fr_energy">   -363.70813012 </i>
    <i name="e_wo_entrp">   -363.65833701 </i>
    <i name="e_0_energy">   -363.69153242 </i>
   </energy>
  </scstep>
  <structure>
   <crystal>
    <varray name="basis" >
     <v>       0.00000000       7.36725000       7.36725000 </v>
     <v>       7.36725000       0.00000000       7.36725000 </v>
     <v>       7.36725000       7.36725000       0.00000000 </v>
    </varray>
    <i name="volume">    799.73521152 </i>
    <varray name="rec_basis" >
     <v>      -0.06786793       0.06786793       0.06786793 </v>
     <v>       0.06786793      -0.06786793       0.06786793 </v>
     <v>       0.06786793       0.06786793      -0.06786793 </v>
    </varray>
   </crystal>
   <varray name="positions" >
    <v>       0.00101802      -0.00101802      -0.00101802 </v>
    <v>       0.00000000       0.00000000       0.25000000 </v>
    <v>       0.00000000       0.00000000       0.50000000 </v>
    <v>       0.00000000       0.00000000       0.75000000 </v>
    <v>       0.00000000       0.25000000       0.00000000 </v>
    <v>       0.00000000       0.25000000       0.25000000 </v>
    <v>       0.00000000       0.25000000       0.50000000 </v>
    <v>       0.00000000       0.25000000       0.75000000 </v>
    <v>       0.00000000       0.50000000       0.00000000 </v>
    <v>       0.00000000       0.50000000       0.25000000 </v>
    <v>       0.00000000       0.50000000       0.50000000 </v>
    <v>       0.00000000       0.50000000       0.75000000 </v>
    <v>       0.00000000       0.75000000       0.00000000 </v>
    <v>       0.00000000       0.75000000       0.25000000 </v>
    <v>       0.00000000       0.75000000       0.50000000 </v>
    <v>       0.00000000       0.75000000       0.75000000 </v>
    <v>       0.25000000       0.00000000       0.00000000 </v>
    <v>       0.25000000       0.00000000       0.25000000 </v>
    <v>       0.25000000       0.00000000       0.50000000 </v>
    <v>       0.25000000       0.00000000       0.75000000 </v>
    <v>       0.25000000       0.25000000       0.00000000 </v>
    <v>       0.25000000       0.25000000       0.25000000 </v>
    <v>       0.25000000       0.25000000       0.50000000 </v>
    <v>       0.25000000       0.25000000       0.75000000 </v>
    <v>       0.25000000       0.50000000       0.00000000 </v>
    <v>       0.25000000       0.50000000       0.25000000 </v>
    <v>       0.25000000       0.50000000       0.50000000 </v>
    <v>       0.25000000       0.50000000       0.75000000 </v>
    <v>       0.25000000       0.75000000       0.00000000 </v>
    <v>       0.25000000       0.75000000       0.25000000 </v>
    <v>       0.25000000       0.75000000       0.50000000 </v>
    <v>       0.25000000       0.75000000       0.75000000 </v>
    <v>       0.50000000       0.00000000       0.00000000 </v>
    <v>       0.50000000       0.00000000       0.25000000 </v>
    <v>       0.50000000       0.00000000       0.50000000 </v>
    <v>       0.50000000       0.00000000       0.75000000 </v>
    <v>       0.50000000       0.25000000       0.00000000 </v>
    <v>       0.50000000       0.25000000       0.25000000 </v>
    <v>       0.50000000       0.25000000       0.50000000 </v>
    <v>       0.50000000       0.25000000       0.75000000 </v>
    <v>       0.50000000       0.50000000       0.00000000 </v>
    <v>       0.50000000       0.50000000       0.25000000 </v>
    <v>       0.50000000       0.50000000       0.50000000 </v>
    <v>       0.50000000       0.50000000       0.75000000 </v>
    <v>       0.50000000       0.75000000       0.00000000 </v>
    <v>       0.50000000       0.75000000       0.25000000 </v>
    <v>       0.50000000       0.75000000       0.50000000 </v>
    <v>       0.50000000       0.75000000       0.75000000 </v>
    <v>       0.75000000       0.00000000       0.00000000 </v>
    <v>       0.75000000       0.00000000       0.25000000 </v>
    <v>       0.75000000       0.00000000       0.50000000 </v>
    <v>       0.75000000       0.00000000       0.75000000 </v>
    <v>       0.75000000       0.25000000       0.00000000 </v>
    <v>       0.75000000       0.25000000       0.25000000 </v>
    <v>       0.75000000       0.25000000       0.50000000 </v>
    <v>       0.75000000       0.25000000       0.75000000 </v>
    <v>       0.75000000       0.50000000       0.00000000 </v>
    <v>       0.75000000       0.50000000       0.25000000 </v>
    <v>       0.75000000       0.50000000       0.50000000 </v>
    <v>       0.75000000       0.50000000       0.75000000 </v>
    <v>       0.75000000       0.75000000       0.00000000 </v>
    <v>       0.75000000       0.75000000       0.25000000 </v>
    <v>       0.75000000       0.75000000       0.50000000 </v>
    <v>       0.75000000       0.75000000       0.75000000 </v>
   </varray>
  </structure>
  <varray name="forces" >
   <v>       0.08281871       0.00000000       0.00000000 </v>
   <v>      -0.00760385      -0.00781697       0.00000000 </v>
   <v>      -0.00035456      -0.00008383       0.00000000 </v>
   <v>      -0.00813622      -0.00846114       0.00000000 </v>
   <v>      -0.00760385       0.00000000      -0.00781697 </v>
   <v>      -0.00106957      -0.00051098      -0.00051098 </v>
   <v>      -0.00038188      -0.00057630       0.00028198 </v>
   <v>      -0.00050497       0.00003169      -0.00003169 </v>
   <v>      -0.00035456       0.00000000      -0.00008383 </v>
   <v>      -0.00038188       0.00028198      -0.00057630 </v>
   <v>       0.00000059       0.00000000       0.00000000 </v>
   <v>      -0.00032159       0.00022761      -0.00051663 </v>
   <v>      -0.00813622       0.00000000      -0.00846114 </v>
   <v>      -0.00050497      -0.00003169       0.00003169 </v>
   <v>      -0.00032159      -0.00051663       0.00022761 </v>
   <v>      -0.00113147      -0.00057729      -0.00057729 </v>
   <v>      -0.00050497      -0.00003169      -0.00003169 </v>
   <v>      -0.00032159      -0.00051663      -0.00022761 </v>
   <v>      -0.00113147      -0.00057729       0.00057729 </v>
   <v>      -0.00813622       0.00000000       0.00846114 </v>
   <v>      -0.00032159      -0.00022761      -0.00051663 </v>
   <v>      -0.00046283       0.00000000       0.00000000 </v>
   <v>      -0.00038188      -0.00028198       0.00057630 </v>
   <v>       0.00058158       0.00000000       0.00004520 </v>
   <v>      -0.00113147       0.00057729      -0.00057729 </v>
   <v>      -0.00038188       0.00057630      -0.00028198 </v>
   <v>       0.00018305      -0.00001884      -0.00001884 </v>
   <v>      -0.00009119       0.00000000       0.00003756 </v>
   <v>      -0.00813622       0.00846114       0.00000000 </v>
   <v>       0.00058158       0.00004520       0.00000000 </v>
   <v>      -0.00009119       0.00003756       0.00000000 </v>
   <v>      -0.00182413       0.00000000       0.00000000 </v>
   <v>       0.00000059       0.00000000       0.00000000 </v>
   <v>      -0.00032159       0.00022761       0.00051663 </v>
   <v>      -0.00035456       0.00000000       0.00008383 </v>
   <v>      -0.00038188       0.00028198       0.00057630 </v>
   <v>      -0.00032159       0.00051663       0.00022761 </v>
   <v>      -0.00106957       0.00051098       0.00051098 </v>
   <v>      -0.00012538       0.00000000      -0.00008875 </v>
   <v>       0.00018305       0.00001884      -0.00001884 </v>
   <v>      -0.00035456       0.00008383       0.00000000 </v>
   <v>      -0.00012538      -0.00008875       0.00000000 </v>
   <v>       0.00036668       0.00000000       0.00000000 </v>
   <v>      -0.00009119      -0.00003756       0.00000000 </v>
   <v>      -0.00038188       0.00057630       0.00028198 </v>
   <v>       0.00018305      -0.00001884       0.00001884 </v>
   <v>      -0.00009119       0.00000000      -0.00003756 </v>
   <v>      -0.00113147       0.00057729       0.00057729 </v>
   <v>      -0.00050497       0.00003169       0.00003169 </v>
   <v>      -0.00760385       0.00000000       0.00781697 </v>
   <v>      -0.00106957      -0.00051098       0.00051098 </v>
   <v>      -0.00038188      -0.00057630      -0.00028198 </v>
   <v>      -0.00760385       0.00781697       0.00000000 </v>
   <v>      -0.00179868       0.00000000       0.00000000 </v>
   <v>      -0.00012538       0.00008875       0.00000000 </v>
   <v>       0.00058158      -0.00004520       0.00000000 </v>
   <v>      -0.00106957       0.00051098      -0.00051098 </v>
   <v>      -0.00012538       0.00000000       0.00008875 </v>
   <v>       0.00018305       0.00001884       0.00001884 </v>
   <v>      -0.00032159       0.00051663      -0.00022761 </v>
   <v>      -0.00038188      -0.00028198      -0.00057630 </v>
   <v>       0.00058158       0.00000000      -0.00004520 </v>
   <v>      -0.00032159      -0.00022761       0.00051663 </v>
   <v>      -0.00046283       0.00000000       0.00000000 </v>
  </varray>
  <varray name="stress" >
   <v>    -198.32157903      -0.00000000       0.00000000 </v>
   <v>       0.00000000    -198.32254147       0.00000000 </v>
   <v>      -0.00000000       0.00000000    -198.32254147 </v>
  </varray>
  <energy>
   <i name="e_fr_energy">   -363.70813012 </i>
   <i name="e_wo_entrp">   -363.69153242 </i>
   <i name="e_0_energy">     -0.04979312 </i>
  </energy>
  <dynmat>
   <varray name="hessian" >
    <v>      -0.09393542       0.00000000       0.00000000       0.00883665       0.00908720       0.00000000       0.00036133       0.00011070       0.00000000       0.00883665       0.00908720       0.00000000       0.00883665       0.00000000       0.00908720       0.00121448       0.00063236       0.00063236       0.00041070       0.00063236      -0.00030709       0.00069541       0.00000000       0.00000000       0.00036133       0.00000000       0.00011070       0.00041070      -0.00030709       0.00063236       0.00008390       0.00000000      -0.00000000       0.00041070      -0.00030709       0.00063236       0.00883665       0.00000000       0.00908720       0.00069541       0.00000000       0.00000000       0.00041070       0.00063236      -0.00030709       0.00121448       0.00063236       0.00063236       0.00069541       0.00000000       0.00000000       0.00041070       0.00063236       0.00030709       0.00121448       0.00063236      -0.00063236       0.00883665       0.00000000      -0.00908720       0.00041070       0.00030709       0.00063236       0.00044330       0.00000000       0.00000000       0.00041070       0.00030709      -0.00063236      -0.00060423       0.00000000      -0.00000000       0.00121448      -0.00063236       0.00063236       0.00041070      -0.00063236       0.00030709      -0.00014036      -0.00000000       0.00000000       0.00012836      -0.00000000      -0.00008394       0.00883665      -0.00908720       0.00000000      -0.00060423       0.00000000      -0.00000000       0.00012836      -0.00008394       0.00000000       0.00199706      -0.00000000       0.00000000       0.00008390       0.00000000      -0.00000000       0.00041070      -0.00030709      -0.00063236       0.00036133       0.00000000      -0.00011070       0.00041070      -0.00030709      -0.00063236       0.00041070      -0.00063236      -0.00030709       0.00121448      -0.00063236      -0.00063236       0.00012836      -0.00000000       0.00008394      -0.00014036      -0.00000000      -0.00000000       0.00036133      -0.00011070      -0.00000000       0.00012836       0.00008394       0.00000000      -0.00036881       0.00000000       0.00000000       0.00012836       0.00008394      -0.00000000       0.00041070      -0.00063236      -0.00030709      -0.00014036       0.00000000       0.00000000       0.00012836       0.00000000       0.00008394       0.00121448      -0.00063236      -0.00063236       0.00069541       0.00000000       0.00000000       0.00883665       0.00000000      -0.00908720       0.00121448       0.00063236      -0.00063236       0.00041070       0.00063236       0.00030709       0.00883665      -0.00908720       0.00000000       0.00199706       0.00000000      -0.00000000       0.00012836      -0.00008394      -0.00000000      -0.00060423      -0.00000000      -0.00000000       0.00121448      -0.00063236       0.00063236       0.00012836       0.00000000      -0.00008394      -0.00014036       0.00000000      -0.00000000       0.00041070      -0.00063236       0.00030709       0.00041070       0.00030709       0.00063236      -0.00060423       0.00000000       0.00000000       0.00041070       0.00030709      -0.00063236       0.00044330       0.00000000       0.00000000 </v>
    <v>       0.00000000      -0.09393542       0.00000000       0.00908720       0.00883665       0.00000000       0.00011070       0.00036133       0.00000000       0.00908720       0.00883665       0.00000000       0.00000000       0.00069541       0.00000000       0.00063236       0.00041070       0.00030709       0.00063236       0.00121448      -0.00063236       0.00000000       0.00883665      -0.00908720       0.00000000       0.00008390       0.00000000      -0.00030709       0.00041070      -0.00063236       0.00000000       0.00036133      -0.00011070      -0.00030709       0.00041070      -0.00063236       0.00000000       0.00069541       0.00000000       0.00000000       0.00883665      -0.00908720       0.00063236       0.00121448      -0.00063236       0.00063236       0.00041070       0.00030709       0.00000000       0.00883665       0.00908720       0.00063236       0.00121448       0.00063236       0.00063236       0.00041070      -0.00030709       0.00000000       0.00069541       0.00000000       0.00030709       0.00041070       0.00063236       0.00000000       0.00044330      -0.00000000       0.00030709       0.00041070      -0.00063236       0.00000000      -0.00060423       0.00000000      -0.00063236       0.00041070      -0.00030709      -0.00063236       0.00121448      -0.00063236       0.00000000       0.00012836       0.00008394       0.00000000      -0.00014036       0.00000000      -0.00908720       0.00883665       0.00000000      -0.00000000       0.00199706       0.00000000      -0.00008394       0.00012836       0.00000000       0.00000000      -0.00060423       0.00000000       0.00000000       0.00036133       0.00011070      -0.00030709       0.00041070       0.00063236       0.00000000       0.00008390      -0.00000000      -0.00030709       0.00041070       0.00063236      -0.00063236       0.00121448       0.00063236      -0.00063236       0.00041070       0.00030709       0.00000000      -0.00014036      -0.00000000       0.00000000       0.00012836      -0.00008394      -0.00011070       0.00036133      -0.00000000       0.00008394       0.00012836      -0.00000000       0.00000000      -0.00036881      -0.00000000       0.00008394       0.00012836       0.00000000      -0.00063236       0.00121448       0.00063236      -0.00000000       0.00012836      -0.00008394      -0.00000000      -0.00014036       0.00000000      -0.00063236       0.00041070       0.00030709       0.00000000       0.00883665       0.00908720       0.00000000       0.00069541       0.00000000       0.00063236       0.00041070      -0.00030709       0.00063236       0.00121448       0.00063236      -0.00908720       0.00883665       0.00000000      -0.00000000      -0.00060423       0.00000000      -0.00008394       0.00012836      -0.00000000       0.00000000       0.00199706      -0.00000000      -0.00063236       0.00041070      -0.00030709      -0.00000000      -0.00014036      -0.00000000      -0.00000000       0.00012836       0.00008394      -0.00063236       0.00121448      -0.00063236       0.00030709       0.00041070       0.00063236       0.00000000      -0.00060423      -0.00000000       0.00030709       0.00041070      -0.00063236       0.00000000       0.00044330      -0.00000000 </v>
    <v>       0.00000000       0.00000000      -0.09393542       0.00000000       0.00000000       0.00069541       0.00000000       0.00000000       0.00008390       0.00000000       0.00000000       0.00069541       0.00908720       0.00000000       0.00883665       0.00063236       0.00030709       0.00041070      -0.00030709      -0.00063236       0.00041070       0.00000000      -0.00908720       0.00883665       0.00011070       0.00000000       0.00036133       0.00063236      -0.00063236       0.00121448      -0.00000000      -0.00011070       0.00036133       0.00063236      -0.00063236       0.00121448       0.00908720       0.00000000       0.00883665       0.00000000      -0.00908720       0.00883665      -0.00030709      -0.00063236       0.00041070       0.00063236       0.00030709       0.00041070       0.00000000       0.00908720       0.00883665       0.00030709       0.00063236       0.00041070      -0.00063236      -0.00030709       0.00041070      -0.00908720       0.00000000       0.00883665       0.00063236       0.00063236       0.00121448       0.00000000      -0.00000000       0.00044330      -0.00063236      -0.00063236       0.00121448       0.00000000      -0.00000000       0.00199706       0.00063236      -0.00030709       0.00041070       0.00030709      -0.00063236       0.00041070      -0.00000000       0.00008394       0.00012836      -0.00008394      -0.00000000       0.00012836       0.00000000       0.00000000       0.00069541      -0.00000000      -0.00000000      -0.00060423      -0.00000000      -0.00000000      -0.00014036      -0.00000000       0.00000000      -0.00060423      -0.00000000       0.00011070       0.00036133      -0.00063236       0.00063236       0.00121448      -0.00011070      -0.00000000       0.00036133      -0.00063236       0.00063236       0.00121448      -0.00030709       0.00063236       0.00041070      -0.00063236       0.00030709       0.00041070       0.00008394       0.00000000       0.00012836       0.00000000      -0.00008394       0.00012836      -0.00000000      -0.00000000       0.00008390      -0.00000000       0.00000000      -0.00014036       0.00000000      -0.00000000      -0.00036881       0.00000000      -0.00000000      -0.00014036      -0.00030709       0.00063236       0.00041070      -0.00000000      -0.00008394       0.00012836       0.00008394      -0.00000000       0.00012836      -0.00063236       0.00030709       0.00041070       0.00000000       0.00908720       0.00883665      -0.00908720       0.00000000       0.00883665      -0.00063236      -0.00030709       0.00041070       0.00030709       0.00063236       0.00041070       0.00000000       0.00000000       0.00069541       0.00000000       0.00000000      -0.00060423       0.00000000       0.00000000      -0.00014036      -0.00000000       0.00000000      -0.00060423       0.00063236      -0.00030709       0.00041070      -0.00008394       0.00000000       0.00012836       0.00000000       0.00008394       0.00012836       0.00030709      -0.00063236       0.00041070       0.00063236       0.00063236       0.00121448      -0.00000000       0.00000000       0.00199706      -0.00063236      -0.00063236       0.00121448       0.00000000      -0.00000000       0.00044330 </v>
[...]
       <r>    20.3095     0.0000   648.0000 </r>
       <r>    20.5894     0.0000   648.0000 </r>
       <r>    20.8692     0.0000   648.0000 </r>
       <r>    21.1491     0.0000   648.0000 </r>
       <r>    21.4289     0.0000   648.0000 </r>
       <r>    21.7088     0.0000   648.0000 </r>
       <r>    21.9886     0.0000   648.0000 </r>
       <r>    22.2685     0.0000   648.0000 </r>
       <r>    22.5483     0.0000   648.0000 </r>
      </set>
      <set comment="spin 2">
       <r>   -61.4054     0.0000     0.0000 </r>
       <r>   -61.1256     0.0000     0.0000 </r>
       <r>   -60.8457     0.0000     0.0000 </r>
       <r>   -60.5659     0.0000     0.0000 </r>
       <r>   -60.2861     0.0000     0.0000 </r>
       <r>   -60.0062     0.0000     0.0000 </r>
       <r>   -59.7264     0.0000     0.0000 </r>
       <r>   -59.4465     0.0000     0.0000 </r>
       <r>   -59.1667     0.0000     0.0000 </r>
       <r>   -58.8868     0.0000     0.0000 </r>
       <r>   -58.6070     0.0000     0.0000 </r>
       <r>   -58.3271    -0.0000    -0.0000 </r>
       <r>   -58.0473    -0.0000    -0.0000 </r>
       <r>   -57.7674    -0.0000    -0.0000 </r>
       <r>   -57.4876    -0.0000    -0.0000 </r>
       <r>   -57.2078    -0.0658    -0.0184 </r>
       <r>   -56.9279   -13.5037    -3.7974 </r>
       <r>   -56.6481   207.6543    54.3138 </r>
       <r>   -56.3682   510.4647   197.1652 </r>
       <r>   -56.0884   -17.5292   192.2597 </r>
       <r>   -55.8085    -0.9278   192.0001 </r>
       <r>   -55.5287    -0.0003   192.0000 </r>
       <r>   -55.2488    -0.0000   192.0000 </r>
       <r>   -54.9690     0.0000   192.0000 </r>
       <r>   -54.6891     0.0000   192.0000 </r>
       <r>   -54.4093     0.0000   192.0000 </r>
       <r>   -54.1294     0.0000   192.0000 </r>
       <r>   -53.8496     0.0000   192.0000 </r>
       <r>   -53.5698     0.0000   192.0000 </r>
       <r>   -53.2899     0.0000   192.0000 </r>
       <r>   -53.0101     0.0000   192.0000 </r>
       <r>   -52.7302     0.0000   192.0000 </r>
       <r>   -52.4504     0.0000   192.0000 </r>
       <r>   -52.1705     0.0000   192.0000 </r>
       <r>   -51.8907     0.0000   192.0000 </r>
       <r>   -51.6108     0.0000   192.0000 </r>
       <r>   -51.3310     0.0000   192.0000 </r>
       <r>   -51.0511     0.0000   192.0000 </r>
       <r>   -50.7713     0.0000   192.0000 </r>
       <r>   -50.4915     0.0000   192.0000 </r>
       <r>   -50.2116     0.0000   192.0000 </r>
       <r>   -49.9318     0.0000   192.0000 </r>
       <r>   -49.6519     0.0000   192.0000 </r>
       <r>   -49.3721     0.0000   192.0000 </r>
       <r>   -49.0922     0.0000   192.0000 </r>
       <r>   -48.8124     0.0000   192.0000 </r>
       <r>   -48.5325     0.0000   192.0000 </r>
       <r>   -48.2527     0.0000   192.0000 </r>
       <r>   -47.9728     0.0000   192.0000 </r>
       <r>   -47.6930     0.0000   192.0000 </r>
       <r>   -47.4131     0.0000   192.0000 </r>
       <r>   -47.1333     0.0000   192.0000 </r>
       <r>   -46.8535     0.0000   192.0000 </r>
       <r>   -46.5736     0.0000   192.0000 </r>
       <r>   -46.2938     0.0000   192.0000 </r>
       <r>   -46.0139     0.0000   192.0000 </r>
       <r>   -45.7341     0.0000   192.0000 </r>
       <r>   -45.4542     0.0000   192.0000 </r>
       <r>   -45.1744     0.0000   192.0000 </r>
       <r>   -44.8945     0.0000   192.0000 </r>
       <r>   -44.6147     0.0000   192.0000 </r>
       <r>   -44.3348     0.0000   192.0000 </r>
       <r>   -44.0550     0.0000   192.0000 </r>
       <r>   -43.7752     0.0000   192.0000 </r>
       <r>   -43.4953     0.0000   192.0000 </r>
       <r>   -43.2155     0.0000   192.0000 </r>
       <r>   -42.9356     0.0000   192.0000 </r>
       <r>   -42.6558     0.0000   192.0000 </r>
       <r>   -42.3759     0.0000   192.0000 </r>
       <r>   -42.0961     0.0000   192.0000 </r>
       <r>   -41.8162     0.0000   192.0000 </r>
       <r>   -41.5364     0.0000   192.0000 </r>
       <r>   -41.2565     0.0000   192.0000 </r>
       <r>   -40.9767     0.0000   192.0000 </r>
       <r>   -40.6968     0.0000   192.0000 </r>
       <r>   -40.4170     0.0000   192.0000 </r>
       <r>   -40.1372     0.0000   192.0000 </r>
       <r>   -39.8573     0.0000   192.0000 </r>
       <r>   -39.5775     0.0000   192.0000 </r>
       <r>   -39.2976     0.0000   192.0000 </r>
       <r>   -39.0178     0.0000   192.0000 </r>
       <r>   -38.7379     0.0000   192.0000 </r>
       <r>   -38.4581     0.0000   192.0000 </r>
       <r>   -38.1782     0.0000   192.0000 </r>
       <r>   -37.8984     0.0000   192.0000 </r>
       <r>   -37.6185     0.0000   192.0000 </r>
       <r>   -37.3387     0.0000   192.0000 </r>
       <r>   -37.0589     0.0000   192.0000 </r>
       <r>   -36.7790     0.0000   192.0000 </r>
       <r>   -36.4992     0.0000   192.0000 </r>
       <r>   -36.2193     0.0000   192.0000 </r>
       <r>   -35.9395     0.0000   192.0000 </r>
       <r>   -35.6596     0.0000   192.0000 </r>
       <r>   -35.3798     0.0000   192.0000 </r>
       <r>   -35.0999     0.0000   192.0000 </r>
       <r>   -34.8201     0.0000   192.0000 </r>
       <r>   -34.5402     0.0000   192.0000 </r>
       <r>   -34.2604     0.0000   192.0000 </r>
       <r>   -33.9805     0.0000   192.0000 </r>
       <r>   -33.7007     0.0000   192.0000 </r>
       <r>   -33.4209     0.0000   192.0000 </r>
       <r>   -33.1410     0.0000   192.0000 </r>
       <r>   -32.8612     0.0000   192.0000 </r>
       <r>   -32.5813     0.0000   192.0000 </r>
       <r>   -32.3015     0.0000   192.0000 </r>
       <r>   -32.0216     0.0000   192.0000 </r>
       <r>   -31.7418     0.0000   192.0000 </r>
       <r>   -31.4619     0.0000   192.0000 </r>
       <r>   -31.1821     0.0000   192.0000 </r>
       <r>   -30.9022     0.0000   192.0000 </r>
       <r>   -30.6224     0.0000   192.0000 </r>
       <r>   -30.3426     0.0000   192.0000 </r>
       <r>   -30.0627     0.0000   192.0000 </r>
       <r>   -29.7829     0.0000   192.0000 </r>
       <r>   -29.5030     0.0000   192.0000 </r>
       <r>   -29.2232     0.0000   192.0000 </r>
       <r>   -28.9433     0.0000   192.0000 </r>
       <r>   -28.6635     0.0000   192.0000 </r>
       <r>   -28.3836     0.0000   192.0000 </r>
       <r>   -28.1038     0.0000   192.0000 </r>
       <r>   -27.8239     0.0000   192.0000 </r>
       <r>   -27.5441     0.0000   192.0000 </r>
       <r>   -27.2642     0.0000   192.0000 </r>
       <r>   -26.9844     0.0000   192.0000 </r>
       <r>   -26.7046     0.0000   192.0000 </r>
       <r>   -26.4247     0.0000   192.0000 </r>
       <r>   -26.1449     0.0000   192.0000 </r>
       <r>   -25.8650     0.0000   192.0000 </r>
       <r>   -25.5852     0.0000   192.0000 </r>
       <r>   -25.3053     0.0000   192.0000 </r>
       <r>   -25.0255     0.0000   192.0000 </r>
       <r>   -24.7456     0.0000   192.0000 </r>
       <r>   -24.4658     0.0000   192.0000 </r>
       <r>   -24.1859     0.0000   192.0000 </r>
       <r>   -23.9061     0.0000   192.0000 </r>
       <r>   -23.6263     0.0000   192.0000 </r>
       <r>   -23.3464     0.0000   192.0000 </r>
       <r>   -23.0666     0.0000   192.0000 </r>
       <r>   -22.7867     0.0000   192.0000 </r>
       <r>   -22.5069     0.0000   192.0000 </r>
       <r>   -22.2270     0.0000   192.0000 </r>
       <r>   -21.9472     0.0000   192.0000 </r>
       <r>   -21.6673     0.0000   192.0000 </r>
       <r>   -21.3875     0.0000   192.0000 </r>
       <r>   -21.1076     0.0000   192.0000 </r>
       <r>   -20.8278     0.0000   192.0000 </r>
       <r>   -20.5479     0.0000   192.0000 </r>
       <r>   -20.2681     0.0000   192.0000 </r>
       <r>   -19.9883     0.0000   192.0000 </r>
       <r>   -19.7084     0.0000   192.0000 </r>
       <r>   -19.4286     0.0000   192.0000 </r>
       <r>   -19.1487     0.0000   192.0000 </r>
       <r>   -18.8689     0.0000   192.0000 </r>
       <r>   -18.5890     0.0000   192.0000 </r>
       <r>   -18.3092     0.0000   192.0000 </r>
       <r>   -18.0293     0.0000   192.0000 </r>
       <r>   -17.7495     0.0000   192.0000 </r>
       <r>   -17.4696     0.0000   192.0000 </r>
       <r>   -17.1898     0.0000   192.0000 </r>
       <r>   -16.9100     0.0000   192.0000 </r>
       <r>   -16.6301     0.0000   192.0000 </r>
       <r>   -16.3503     0.0000   192.0000 </r>
       <r>   -16.0704     0.0000   192.0000 </r>
       <r>   -15.7906     0.0000   192.0000 </r>
       <r>   -15.5107     0.0000   192.0000 </r>
       <r>   -15.2309     0.0000   192.0000 </r>
       <r>   -14.9510     0.0000   192.0000 </r>
       <r>   -14.6712     0.0000   192.0000 </r>
       <r>   -14.3913     0.0000   192.0000 </r>
       <r>   -14.1115     0.0000   192.0000 </r>
       <r>   -13.8317     0.0000   192.0000 </r>
       <r>   -13.5518     0.0000   192.0000 </r>
       <r>   -13.2720     0.0000   192.0000 </r>
       <r>   -12.9921     0.0000   192.0000 </r>
       <r>   -12.7123     0.0000   192.0000 </r>
       <r>   -12.4324     0.0000   192.0000 </r>
       <r>   -12.1526     0.0000   192.0000 </r>
       <r>   -11.8727     0.0000   192.0000 </r>
       <r>   -11.5929     0.0000   192.0000 </r>
       <r>   -11.3130     0.0000   192.0000 </r>
       <r>   -11.0332     0.0000   192.0000 </r>
       <r>   -10.7533     0.0000   192.0000 </r>
       <r>   -10.4735     0.0000   192.0000 </r>
       <r>   -10.1937     0.0000   192.0000 </r>
       <r>    -9.9138     0.0000   192.0000 </r>
       <r>    -9.6340     0.0000   192.0000 </r>
       <r>    -9.3541     0.0000   192.0000 </r>
       <r>    -9.0743     0.0000   192.0000 </r>
       <r>    -8.7944     0.0000   192.0000 </r>
       <r>    -8.5146     0.0000   192.0000 </r>
       <r>    -8.2347     0.0000   192.0000 </r>
       <r>    -7.9549     0.0000   192.0000 </r>
       <r>    -7.6750     0.0000   192.0000 </r>
       <r>    -7.3952     0.0000   192.0000 </r>
       <r>    -7.1154     0.0000   192.0000 </r>
       <r>    -6.8355     0.0000   192.0000 </r>
       <r>    -6.5557     0.0000   192.0000 </r>
       <r>    -6.2758     0.0000   192.0000 </r>
       <r>    -5.9960     0.0000   192.0000 </r>
       <r>    -5.7161     0.0000   192.0000 </r>
       <r>    -5.4363     0.0000   192.0000 </r>
       <r>    -5.1564     0.0000   192.0000 </r>
       <r>    -4.8766     0.0000   192.0000 </r>
       <r>    -4.5967     0.0000   192.0000 </r>
       <r>    -4.3169     0.0000   192.0000 </r>
       <r>    -4.0370     0.0000   192.0000 </r>
       <r>    -3.7572    -0.0000   192.0000 </r>
       <r>    -3.4774    -0.0000   192.0000 </r>
       <r>    -3.1975    -0.0000   192.0000 </r>
       <r>    -2.9177    -0.0000   192.0000 </r>
       <r>    -2.6378    -0.0000   192.0000 </r>
       <r>    -2.3580    -0.0007   191.9998 </r>
       <r>    -2.0781    -0.0068   191.9979 </r>
       <r>    -1.7983     0.2128   192.0575 </r>
       <r>    -1.5184     1.5760   192.4985 </r>
       <r>    -1.2386     1.1942   192.8327 </r>
       <r>    -0.9587     3.8195   193.9016 </r>
       <r>    -0.6789     1.2268   194.2449 </r>
       <r>    -0.3991     3.5659   195.2428 </r>
       <r>    -0.1192     4.3052   196.4476 </r>
       <r>     0.1606     4.5861   197.7310 </r>
       <r>     0.4405     2.0586   198.3071 </r>
       <r>     0.7203     6.2346   200.0518 </r>
       <r>     1.0002     6.8576   201.9709 </r>
       <r>     1.2800     6.4160   203.7664 </r>
       <r>     1.5599     3.4054   204.7194 </r>
       <r>     1.8397     9.6025   207.4066 </r>
       <r>     2.1196    13.2646   211.1186 </r>
       <r>     2.3994    10.3729   214.0214 </r>
       <r>     2.6793    17.3501   218.8768 </r>
       <r>     2.9591    36.3879   229.0598 </r>
       <r>     3.2389    30.0841   237.4787 </r>
       <r>     3.5188    49.3724   251.2953 </r>
       <r>     3.7986    62.3919   268.7554 </r>
       <r>     4.0785    61.0781   285.8479 </r>
       <r>     4.3583    66.4045   304.4309 </r>
       <r>     4.6382    88.5841   329.2208 </r>
       <r>     4.9180   105.1393   358.6436 </r>
       <r>     5.1979   107.5608   388.7440 </r>
       <r>     5.4777    81.9248   411.6703 </r>
       <r>     5.7576   101.5990   440.1024 </r>
       <r>     6.0374    85.2528   463.9600 </r>
       <r>     6.3172   107.3881   494.0121 </r>
       <r>     6.5971   111.1105   525.1059 </r>
       <r>     6.8769    32.9272   534.3205 </r>
       <r>     7.1568    11.7267   537.6021 </r>
       <r>     7.4366     7.0336   539.5705 </r>
       <r>     7.7165    16.4414   544.1715 </r>
       <r>     7.9963    11.9597   547.5184 </r>
       <r>     8.2762     9.7922   550.2587 </r>
       <r>     8.5560     6.4259   552.0570 </r>
       <r>     8.8359    11.9700   555.4067 </r>
       <r>     9.1157     9.8255   558.1563 </r>
       <r>     9.3956    10.6651   561.1409 </r>
       <r>     9.6754     5.7186   562.7412 </r>
       <r>     9.9552     8.6500   565.1619 </r>
       <r>    10.2351     8.7716   567.6166 </r>
       <r>    10.5149     0.3706   567.7203 </r>
       <r>    10.7948     6.2095   569.4580 </r>
       <r>    11.0746     8.8555   571.9362 </r>
       <r>    11.3545     3.7768   572.9931 </r>
       <r>    11.6343     7.5453   575.1046 </r>
       <r>    11.9142    13.1941   578.7969 </r>
       <r>    12.1940    11.2435   581.9434 </r>
       <r>    12.4739     5.9668   583.6131 </r>
       <r>    12.7537     8.5864   586.0160 </r>
       <r>    13.0335     7.6619   588.1602 </r>
       <r>    13.3134    12.7403   591.7255 </r>
       <r>    13.5932     5.5471   593.2778 </r>
       <r>    13.8731    14.5752   597.3566 </r>
       <r>    14.1529     7.3526   599.4142 </r>
       <r>    14.4328     5.7791   601.0315 </r>
       <r>    14.7126     9.9803   603.8244 </r>
       <r>    14.9925     8.1375   606.1017 </r>
       <r>    15.2723     9.4559   608.7479 </r>
       <r>    15.5522     9.2132   611.3262 </r>
       <r>    15.8320    12.0275   614.6920 </r>
       <r>    16.1119    18.8999   619.9811 </r>
       <r>    16.3917    14.1018   623.9274 </r>
       <r>    16.6715     8.3679   626.2691 </r>
       <r>    16.9514    15.2425   630.5347 </r>
       <r>    17.2312    11.6600   633.7977 </r>
       <r>    17.5111     8.2138   636.0963 </r>
       <r>    17.7909    15.8076   640.5199 </r>
       <r>    18.0708     7.8185   642.7079 </r>
       <r>    18.3506    11.3432   645.8823 </r>
       <r>    18.6305     5.3854   647.3894 </r>
       <r>    18.9103     2.3021   648.0336 </r>
       <r>    19.1902    -0.1175   648.0007 </r>
       <r>    19.4700    -0.0025   648.0000 </r>
       <r>    19.7498    -0.0000   648.0000 </r>
       <r>    20.0297    -0.0000   648.0000 </r>
       <r>    20.3095     0.0000   648.0000 </r>
       <r>    20.5894     0.0000   648.0000 </r>
       <r>    20.8692     0.0000   648.0000 </r>
       <r>    21.1491     0.0000   648.0000 </r>
       <r>    21.4289     0.0000   648.0000 </r>
       <r>    21.7088     0.0000   648.0000 </r>
       <r>    21.9886     0.0000   648.0000 </r>
       <r>    22.2685     0.0000   648.0000 </r>
       <r>    22.5483     0.0000   648.0000 </r>
      </set>
     </set>
    </array>
   </total>
  </dos>
 </calculation>
 <structure name="finalpos" >
  <crystal>
   <varray name="basis" >
    <v>       0.00000000       7.36725000       7.36725000 </v>
    <v>       7.36725000       0.00000000       7.36725000 </v>
    <v>       7.36725000       7.36725000       0.00000000 </v>
   </varray>
   <i name="volume">    799.73521152 </i>
   <varray name="rec_basis" >
    <v>      -0.06786793       0.06786793       0.06786793 </v>
    <v>       0.06786793      -0.06786793       0.06786793 </v>
    <v>       0.06786793       0.06786793      -0.06786793 </v>
   </varray>
  </crystal>
  <varray name="positions" >
   <v>       0.00101802      -0.00101802      -0.00101802 </v>
   <v>       0.00000000       0.00000000       0.25000000 </v>
   <v>       0.00000000       0.00000000       0.50000000 </v>
   <v>       0.00000000       0.00000000       0.75000000 </v>
   <v>       0.00000000       0.25000000       0.00000000 </v>
   <v>       0.00000000       0.25000000       0.25000000 </v>
   <v>       0.00000000       0.25000000       0.50000000 </v>
   <v>       0.00000000       0.25000000       0.75000000 </v>
   <v>       0.00000000       0.50000000       0.00000000 </v>
   <v>       0.00000000       0.50000000       0.25000000 </v>
   <v>       0.00000000       0.50000000       0.50000000 </v>
   <v>       0.00000000       0.50000000       0.75000000 </v>
   <v>       0.00000000       0.75000000       0.00000000 </v>
   <v>       0.00000000       0.75000000       0.25000000 </v>
   <v>       0.00000000       0.75000000       0.50000000 </v>
   <v>       0.00000000       0.75000000       0.75000000 </v>
   <v>       0.25000000       0.00000000       0.00000000 </v>
   <v>       0.25000000       0.00000000       0.25000000 </v>
   <v>       0.25000000       0.00000000       0.50000000 </v>
   <v>       0.25000000       0.00000000       0.75000000 </v>
   <v>       0.25000000       0.25000000       0.00000000 </v>
   <v>       0.25000000       0.25000000       0.25000000 </v>
   <v>       0.25000000       0.25000000       0.50000000 </v>
   <v>       0.25000000       0.25000000       0.75000000 </v>
   <v>       0.25000000       0.50000000       0.00000000 </v>
   <v>       0.25000000       0.50000000       0.25000000 </v>
   <v>       0.25000000       0.50000000       0.50000000 </v>
   <v>       0.25000000       0.50000000       0.75000000 </v>
   <v>       0.25000000       0.75000000       0.00000000 </v>
   <v>       0.25000000       0.75000000       0.25000000 </v>
   <v>       0.25000000       0.75000000       0.50000000 </v>
   <v>       0.25000000       0.75000000       0.75000000 </v>
   <v>       0.50000000       0.00000000       0.00000000 </v>
   <v>       0.50000000       0.00000000       0.25000000 </v>
   <v>       0.50000000       0.00000000       0.50000000 </v>
   <v>       0.50000000       0.00000000       0.75000000 </v>
   <v>       0.50000000       0.25000000       0.00000000 </v>
   <v>       0.50000000       0.25000000       0.25000000 </v>
   <v>       0.50000000       0.25000000       0.50000000 </v>
   <v>       0.50000000       0.25000000       0.75000000 </v>
   <v>       0.50000000       0.50000000       0.00000000 </v>
   <v>       0.50000000       0.50000000       0.25000000 </v>
   <v>       0.50000000       0.50000000       0.50000000 </v>
   <v>       0.50000000       0.50000000       0.75000000 </v>
   <v>       0.50000000       0.75000000       0.00000000 </v>
   <v>       0.50000000       0.75000000       0.25000000 </v>
   <v>       0.50000000       0.75000000       0.50000000 </v>
   <v>       0.50000000       0.75000000       0.75000000 </v>
   <v>       0.75000000       0.00000000       0.00000000 </v>
   <v>       0.75000000       0.00000000       0.25000000 </v>
   <v>       0.75000000       0.00000000       0.50000000 </v>
   <v>       0.75000000       0.00000000       0.75000000 </v>
   <v>       0.75000000       0.25000000       0.00000000 </v>
   <v>       0.75000000       0.25000000       0.25000000 </v>
   <v>       0.75000000       0.25000000       0.50000000 </v>
   <v>       0.75000000       0.25000000       0.75000000 </v>
   <v>       0.75000000       0.50000000       0.00000000 </v>
   <v>       0.75000000       0.50000000       0.25000000 </v>
   <v>       0.75000000       0.50000000       0.50000000 </v>
   <v>       0.75000000       0.50000000       0.75000000 </v>
   <v>       0.75000000       0.75000000       0.00000000 </v>
   <v>       0.75000000       0.75000000       0.25000000 </v>
   <v>       0.75000000       0.75000000       0.50000000 </v>
   <v>       0.75000000       0.75000000       0.75000000 </v>
  </varray>
 </structure>
</modeling>
