       N       E                     dE             d eps       ncg     rms          rms(c)
DAV:   1     0.138078111771E+05    0.13808E+05   -0.54631E+05 30096   0.189E+03
DAV:   2     0.781705722341E+03   -0.13026E+05   -0.12616E+05 25920   0.636E+02
DAV:   3    -0.370810808252E+03   -0.11525E+04   -0.95358E+03 26712   0.197E+02
DAV:   4    -0.429716716764E+03   -0.58906E+02   -0.57503E+02 27872   0.449E+01
DAV:   5    -0.430589745155E+03   -0.87303E+00   -0.87242E+00 27488   0.509E+00    0.683E+01
DAV:   6    -0.398900245646E+03    0.31689E+02   -0.62433E+02 27312   0.708E+01    0.530E+01
DAV:   7    -0.367471014886E+03    0.31429E+02   -0.12350E+02 27144   0.317E+01    0.584E+00
DAV:   8    -0.367550435190E+03   -0.79420E-01   -0.10907E+00 27008   0.211E+00    0.270E+00
DAV:   9    -0.367529252646E+03    0.21183E-01   -0.19279E-01 27904   0.772E-01    0.111E+00
DAV:  10    -0.367531677054E+03   -0.24244E-02   -0.11735E-02 28184   0.174E-01    0.274E-01
DAV:  11    -0.367534484436E+03   -0.28074E-02   -0.41037E-03 26624   0.133E-01    0.122E-01
DAV:  12    -0.367534636287E+03   -0.15185E-03   -0.55377E-04 28456   0.474E-02    0.283E-02
DAV:  13    -0.367534663150E+03   -0.26863E-04   -0.41071E-05 26704   0.116E-02    0.171E-02
DAV:  14    -0.367534645142E+03    0.18008E-04   -0.65101E-06 21776   0.615E-03    0.627E-03
DAV:  15    -0.367534633727E+03    0.11415E-04   -0.76188E-07 13904   0.191E-03    0.131E-03
DAV:  16    -0.367534633654E+03    0.73778E-07   -0.19029E-07 13640   0.121E-03
   1 F= -.36753463E+03 E0= -.36748663E+03  d E =-.144001E+00  mag=    40.9627
 Found     1 degrees of freedom:
       N       E                     dE             d eps       ncg     rms          rms(c)
DAV:   1    -0.367461640575E+03    0.72993E-01   -0.24834E+00 62232   0.150E+01    0.440E-01
DAV:   2    -0.367534545177E+03   -0.72905E-01   -0.71378E-01 48136   0.153E+00    0.102E+00
DAV:   3    -0.367535586654E+03   -0.10415E-02   -0.24879E-02 56640   0.797E-01    0.870E-01
DAV:   4    -0.367535217025E+03    0.36963E-03   -0.39311E-03 56608   0.470E-01    0.724E-01
DAV:   5    -0.367533940475E+03    0.12766E-02   -0.10779E-03 50688   0.308E-01    0.156E-01
DAV:   6    -0.367533929993E+03    0.10482E-04   -0.20886E-04 60456   0.720E-02    0.133E-01
DAV:   7    -0.367533887627E+03    0.42367E-04   -0.51684E-05 51552   0.517E-02    0.116E-01
DAV:   8    -0.367533872684E+03    0.14942E-04   -0.58359E-05 51840   0.636E-02    0.123E-01
DAV:   9    -0.367533883479E+03   -0.10795E-04   -0.12302E-04 52952   0.101E-01    0.172E-01
DAV:  10    -0.367533788808E+03    0.94671E-04   -0.11082E-04 58392   0.888E-02    0.262E-02
DAV:  11    -0.367533796424E+03   -0.76155E-05   -0.28100E-05 62016   0.287E-02    0.550E-02
DAV:  12    -0.367533791151E+03    0.52730E-05   -0.95849E-06 50416   0.237E-02    0.183E-02
DAV:  13    -0.367533790721E+03    0.42925E-06   -0.19784E-06 25928   0.106E-02
   2 F= -.36753379E+03 E0= -.36748580E+03  d E =-.143985E+00  mag=    40.9628
       N       E                     dE             d eps       ncg     rms          rms(c)
DAV:   1    -0.367274349470E+03    0.25944E+00   -0.80006E+00 62400   0.261E+01    0.859E-01
DAV:   2    -0.367547162546E+03   -0.27281E+00   -0.25590E+00 48408   0.278E+00    0.286E+00
DAV:   3    -0.367536601011E+03    0.10562E-01   -0.11382E-01 55592   0.149E+00    0.113E+00
DAV:   4    -0.367542009226E+03   -0.54082E-02   -0.16488E-02 58656   0.985E-01    0.178E+00
DAV:   5    -0.367534421430E+03    0.75878E-02   -0.65365E-03 50440   0.735E-01    0.385E-01
DAV:   6    -0.367534252476E+03    0.16895E-03   -0.10314E-03 58816   0.180E-01    0.240E-01
DAV:   7    -0.367534163989E+03    0.88486E-04   -0.28453E-04 51720   0.115E-01    0.243E-01
DAV:   8    -0.367534021792E+03    0.14220E-03   -0.23015E-04 51808   0.124E-01    0.205E-01
DAV:   9    -0.367534125851E+03   -0.10406E-03   -0.37256E-04 51864   0.174E-01    0.320E-01
DAV:  10    -0.367533897863E+03    0.22799E-03   -0.40686E-04 59416   0.179E-01    0.227E-01
DAV:  11    -0.367533786343E+03    0.11152E-03   -0.16858E-04 58448   0.957E-02    0.328E-02
DAV:  12    -0.367533799798E+03   -0.13454E-04   -0.44458E-05 67560   0.362E-02    0.632E-02
DAV:  13    -0.367533791252E+03    0.85455E-05   -0.16983E-05 50312   0.325E-02    0.203E-02
DAV:  14    -0.367533792553E+03   -0.13009E-05   -0.37952E-06 36160   0.157E-02    0.285E-02
DAV:  15    -0.367533790762E+03    0.17904E-05   -0.21033E-06 28376   0.131E-02    0.600E-03
DAV:  16    -0.367533791248E+03   -0.48568E-06   -0.93869E-07 24144   0.721E-03
   3 F= -.36753379E+03 E0= -.36748580E+03  d E =-.143986E+00  mag=    40.9628
