 vasp.5.4.1 05Feb16 (build Oct 12 2016 17:31:35) complex                        
  
 executed on           IFC91_ompi date 2020.09.07  22:42:42
 running on    4 total cores
 distrk:  each k-point on    4 cores,    1 groups
 distr:  one band on NCORES_PER_BAND=   1 cores,    4 groups


--------------------------------------------------------------------------------------------------------


 INCAR:
 POTCAR:   PAW_PBE Ni_pv 06Sep2000                
 POTCAR:   PAW_PBE Ni_pv 06Sep2000                
  local pseudopotential read in
  partial core-charges read in
  atomic valenz-charges read in
  non local Contribution for L=           1  read in
    real space projection operators read in
  non local Contribution for L=           1  read in
    real space projection operators read in
  non local Contribution for L=           2  read in
    real space projection operators read in
  non local Contribution for L=           2  read in
    real space projection operators read in
  non local Contribution for L=           0  read in
    real space projection operators read in
  non local Contribution for L=           0  read in
    real space projection operators read in
    PAW grid and wavefunctions read in
 
   number of l-projection  operators is LMAX  =           6
   number of lm-projection operators is LMMAX =          18
 
 Optimization of the real space projectors (new method)

 maximal supplied QI-value         = 18.90
 optimisation between [QCUT,QGAM] = [  9.83, 19.65] = [ 27.04,108.16] Ry 
 Optimized for a Real-space Cutoff    1.44 Angstroem

   l    n(q)    QCUT    max X(q) W(low)/X(q) W(high)/X(q)  e(spline) 
   1      8     9.827     3.231    0.38E-04    0.39E-04    0.57E-07
   1      8     9.827     4.241    0.57E-04    0.19E-03    0.30E-06
   2      7     9.827     3.566    0.29E-04    0.66E-04    0.48E-07
   2      7     9.827    20.429    0.17E-03    0.37E-03    0.30E-06
   0      8     9.827    19.799    0.18E-04    0.76E-05    0.78E-08
   0      8     9.827    52.283    0.39E-04    0.68E-04    0.44E-07
 PAW_PBE Ni_pv 06Sep2000                :
 energy of atom  1       EATOM=-3500.3496
 kinetic energy error for atom=    0.1419 (will be added to EATOM!!)
 
 
 POSCAR: Supercell by Yi Wang                    
  positions in direct lattice
  No initial velocities read in
 exchange correlation table for  LEXCH =        8
   RHO(1)=    0.500       N(1)  =     2000
   RHO(2)=  100.500       N(2)  =     4000
 


--------------------------------------------------------------------------------------------------------


 ion  position               nearest neighbor table
   1  0.000  0.000  0.000-   2 2.53   4 2.53   5 2.53   8 2.53  13 2.53  14 2.53  17 2.53  20 2.53
                            29 2.53  49 2.53  50 2.53  53 2.53
   2  0.000  0.000  0.250-   1 2.53   3 2.53   5 2.53   6 2.53  14 2.53  15 2.53  17 2.53  18 2.53
                            30 2.53  50 2.53  51 2.53  54 2.53
   3  0.000  0.000  0.500-   2 2.53   4 2.53   6 2.53   7 2.53  15 2.53  16 2.53  18 2.53  19 2.53
                            31 2.53  51 2.53  52 2.53  55 2.53
   4  0.000  0.000  0.750-   1 2.53   3 2.53   7 2.53   8 2.53  13 2.53  16 2.53  19 2.53  20 2.53
                            32 2.53  49 2.53  52 2.53  56 2.53
   5  0.000  0.250  0.000-   1 2.53   2 2.53   6 2.53   8 2.53   9 2.53  12 2.53  17 2.53  21 2.53
                            24 2.53  53 2.53  54 2.53  57 2.53
   6  0.000  0.250  0.250-   2 2.53   3 2.53   5 2.53   7 2.53   9 2.53  10 2.53  18 2.53  21 2.53
                            22 2.53  54 2.53  55 2.53  58 2.53
   7  0.000  0.250  0.500-   3 2.53   4 2.53   6 2.53   8 2.53  10 2.53  11 2.53  19 2.53  22 2.53
                            23 2.53  55 2.53  56 2.53  59 2.53
   8  0.000  0.250  0.750-   1 2.53   4 2.53   5 2.53   7 2.53  11 2.53  12 2.53  20 2.53  23 2.53
                            24 2.53  53 2.53  56 2.53  60 2.53
   9  0.000  0.500  0.000-   5 2.53   6 2.53  10 2.53  12 2.53  13 2.53  16 2.53  21 2.53  25 2.53
                            28 2.53  57 2.53  58 2.53  61 2.53
  10  0.000  0.500  0.250-   6 2.53   7 2.53   9 2.53  11 2.53  13 2.53  14 2.53  22 2.53  25 2.53
                            26 2.53  58 2.53  59 2.53  62 2.53
  11  0.000  0.500  0.500-   7 2.53   8 2.53  10 2.53  12 2.53  14 2.53  15 2.53  23 2.53  26 2.53
                            27 2.53  59 2.53  60 2.53  63 2.53
  12  0.000  0.500  0.750-   5 2.53   8 2.53   9 2.53  11 2.53  15 2.53  16 2.53  24 2.53  27 2.53
                            28 2.53  57 2.53  60 2.53  64 2.53
  13  0.000  0.750  0.000-   1 2.53   4 2.53   9 2.53  10 2.53  14 2.53  16 2.53  25 2.53  29 2.53
                            32 2.53  49 2.53  61 2.53  62 2.53
  14  0.000  0.750  0.250-   1 2.53   2 2.53  10 2.53  11 2.53  13 2.53  15 2.53  26 2.53  29 2.53
                            30 2.53  50 2.53  62 2.53  63 2.53
  15  0.000  0.750  0.500-   2 2.53   3 2.53  11 2.53  12 2.53  14 2.53  16 2.53  27 2.53  30 2.53
                            31 2.53  51 2.53  63 2.53  64 2.53
  16  0.000  0.750  0.750-   3 2.53   4 2.53   9 2.53  12 2.53  13 2.53  15 2.53  28 2.53  31 2.53
                            32 2.53  52 2.53  61 2.53  64 2.53
  17  0.250  0.000  0.000-   1 2.53   2 2.53   5 2.53  18 2.53  20 2.53  21 2.53  24 2.53  29 2.53
                            30 2.53  33 2.53  36 2.53  45 2.53
  18  0.250  0.000  0.250-   2 2.53   3 2.53   6 2.53  17 2.53  19 2.53  21 2.53  22 2.53  30 2.53
                            31 2.53  33 2.53  34 2.53  46 2.53
  19  0.250  0.000  0.500-   3 2.53   4 2.53   7 2.53  18 2.53  20 2.53  22 2.53  23 2.53  31 2.53
                            32 2.53  34 2.53  35 2.53  47 2.53
  20  0.250  0.000  0.750-   1 2.53   4 2.53   8 2.53  17 2.53  19 2.53  23 2.53  24 2.53  29 2.53
                            32 2.53  35 2.53  36 2.53  48 2.53
  21  0.250  0.250  0.000-   5 2.53   6 2.53   9 2.53  17 2.53  18 2.53  22 2.53  24 2.53  25 2.53
                            28 2.53  33 2.53  37 2.53  40 2.53
  22  0.250  0.250  0.250-   6 2.53   7 2.53  10 2.53  18 2.53  19 2.53  21 2.53  23 2.53  25 2.53
                            26 2.53  34 2.53  37 2.53  38 2.53
  23  0.250  0.250  0.500-   7 2.53   8 2.53  11 2.53  19 2.53  20 2.53  22 2.53  24 2.53  26 2.53
                            27 2.53  35 2.53  38 2.53  39 2.53
  24  0.250  0.250  0.750-   5 2.53   8 2.53  12 2.53  17 2.53  20 2.53  21 2.53  23 2.53  27 2.53
                            28 2.53  36 2.53  39 2.53  40 2.53
  25  0.250  0.500  0.000-   9 2.53  10 2.53  13 2.53  21 2.53  22 2.53  26 2.53  28 2.53  29 2.53
                            32 2.53  37 2.53  41 2.53  44 2.53
  26  0.250  0.500  0.250-  10 2.53  11 2.53  14 2.53  22 2.53  23 2.53  25 2.53  27 2.53  29 2.53
                            30 2.53  38 2.53  41 2.53  42 2.53
  27  0.250  0.500  0.500-  11 2.53  12 2.53  15 2.53  23 2.53  24 2.53  26 2.53  28 2.53  30 2.53
                            31 2.53  39 2.53  42 2.53  43 2.53
  28  0.250  0.500  0.750-   9 2.53  12 2.53  16 2.53  21 2.53  24 2.53  25 2.53  27 2.53  31 2.53
                            32 2.53  40 2.53  43 2.53  44 2.53
  29  0.250  0.750  0.000-   1 2.53  13 2.53  14 2.53  17 2.53  20 2.53  25 2.53  26 2.53  30 2.53
                            32 2.53  41 2.53  45 2.53  48 2.53
  30  0.250  0.750  0.250-   2 2.53  14 2.53  15 2.53  17 2.53  18 2.53  26 2.53  27 2.53  29 2.53
                            31 2.53  42 2.53  45 2.53  46 2.53
  31  0.250  0.750  0.500-   3 2.53  15 2.53  16 2.53  18 2.53  19 2.53  27 2.53  28 2.53  30 2.53
                            32 2.53  43 2.53  46 2.53  47 2.53
  32  0.250  0.750  0.750-   4 2.53  13 2.53  16 2.53  19 2.53  20 2.53  25 2.53  28 2.53  29 2.53
                            31 2.53  44 2.53  47 2.53  48 2.53
  33  0.500  0.000  0.000-  17 2.53  18 2.53  21 2.53  34 2.53  36 2.53  37 2.53  40 2.53  45 2.53
                            46 2.53  49 2.53  52 2.53  61 2.53
  34  0.500  0.000  0.250-  18 2.53  19 2.53  22 2.53  33 2.53  35 2.53  37 2.53  38 2.53  46 2.53
                            47 2.53  49 2.53  50 2.53  62 2.53
  35  0.500  0.000  0.500-  19 2.53  20 2.53  23 2.53  34 2.53  36 2.53  38 2.53  39 2.53  47 2.53
                            48 2.53  50 2.53  51 2.53  63 2.53
  36  0.500  0.000  0.750-  17 2.53  20 2.53  24 2.53  33 2.53  35 2.53  39 2.53  40 2.53  45 2.53
                            48 2.53  51 2.53  52 2.53  64 2.53
  37  0.500  0.250  0.000-  21 2.53  22 2.53  25 2.53  33 2.53  34 2.53  38 2.53  40 2.53  41 2.53
                            44 2.53  49 2.53  53 2.53  56 2.53
  38  0.500  0.250  0.250-  22 2.53  23 2.53  26 2.53  34 2.53  35 2.53  37 2.53  39 2.53  41 2.53
                            42 2.53  50 2.53  53 2.53  54 2.53
  39  0.500  0.250  0.500-  23 2.53  24 2.53  27 2.53  35 2.53  36 2.53  38 2.53  40 2.53  42 2.53
                            43 2.53  51 2.53  54 2.53  55 2.53
  40  0.500  0.250  0.750-  21 2.53  24 2.53  28 2.53  33 2.53  36 2.53  37 2.53  39 2.53  43 2.53
                            44 2.53  52 2.53  55 2.53  56 2.53
  41  0.500  0.500  0.000-  25 2.53  26 2.53  29 2.53  37 2.53  38 2.53  42 2.53  44 2.53  45 2.53
                            48 2.53  53 2.53  57 2.53  60 2.53
  42  0.500  0.500  0.250-  26 2.53  27 2.53  30 2.53  38 2.53  39 2.53  41 2.53  43 2.53  45 2.53
                            46 2.53  54 2.53  57 2.53  58 2.53
  43  0.500  0.500  0.500-  27 2.53  28 2.53  31 2.53  39 2.53  40 2.53  42 2.53  44 2.53  46 2.53
                            47 2.53  55 2.53  58 2.53  59 2.53
  44  0.500  0.500  0.750-  25 2.53  28 2.53  32 2.53  37 2.53  40 2.53  41 2.53  43 2.53  47 2.53
                            48 2.53  56 2.53  59 2.53  60 2.53
  45  0.500  0.750  0.000-  17 2.53  29 2.53  30 2.53  33 2.53  36 2.53  41 2.53  42 2.53  46 2.53
                            48 2.53  57 2.53  61 2.53  64 2.53
  46  0.500  0.750  0.250-  18 2.53  30 2.53  31 2.53  33 2.53  34 2.53  42 2.53  43 2.53  45 2.53
                            47 2.53  58 2.53  61 2.53  62 2.53
  47  0.500  0.750  0.500-  19 2.53  31 2.53  32 2.53  34 2.53  35 2.53  43 2.53  44 2.53  46 2.53
                            48 2.53  59 2.53  62 2.53  63 2.53
  48  0.500  0.750  0.750-  20 2.53  29 2.53  32 2.53  35 2.53  36 2.53  41 2.53  44 2.53  45 2.53
                            47 2.53  60 2.53  63 2.53  64 2.53
  49  0.750  0.000  0.000-   1 2.53   4 2.53  13 2.53  33 2.53  34 2.53  37 2.53  50 2.53  52 2.53
                            53 2.53  56 2.53  61 2.53  62 2.53
  50  0.750  0.000  0.250-   1 2.53   2 2.53  14 2.53  34 2.53  35 2.53  38 2.53  49 2.53  51 2.53
                            53 2.53  54 2.53  62 2.53  63 2.53
  51  0.750  0.000  0.500-   2 2.53   3 2.53  15 2.53  35 2.53  36 2.53  39 2.53  50 2.53  52 2.53
                            54 2.53  55 2.53  63 2.53  64 2.53
  52  0.750  0.000  0.750-   3 2.53   4 2.53  16 2.53  33 2.53  36 2.53  40 2.53  49 2.53  51 2.53
                            55 2.53  56 2.53  61 2.53  64 2.53
  53  0.750  0.250  0.000-   1 2.53   5 2.53   8 2.53  37 2.53  38 2.53  41 2.53  49 2.53  50 2.53
                            54 2.53  56 2.53  57 2.53  60 2.53
  54  0.750  0.250  0.250-   2 2.53   5 2.53   6 2.53  38 2.53  39 2.53  42 2.53  50 2.53  51 2.53
                            53 2.53  55 2.53  57 2.53  58 2.53
  55  0.750  0.250  0.500-   3 2.53   6 2.53   7 2.53  39 2.53  40 2.53  43 2.53  51 2.53  52 2.53
                            54 2.53  56 2.53  58 2.53  59 2.53
  56  0.750  0.250  0.750-   4 2.53   7 2.53   8 2.53  37 2.53  40 2.53  44 2.53  49 2.53  52 2.53
                            53 2.53  55 2.53  59 2.53  60 2.53
  57  0.750  0.500  0.000-   5 2.53   9 2.53  12 2.53  41 2.53  42 2.53  45 2.53  53 2.53  54 2.53
                            58 2.53  60 2.53  61 2.53  64 2.53
  58  0.750  0.500  0.250-   6 2.53   9 2.53  10 2.53  42 2.53  43 2.53  46 2.53  54 2.53  55 2.53
                            57 2.53  59 2.53  61 2.53  62 2.53
  59  0.750  0.500  0.500-   7 2.53  10 2.53  11 2.53  43 2.53  44 2.53  47 2.53  55 2.53  56 2.53
                            58 2.53  60 2.53  62 2.53  63 2.53
  60  0.750  0.500  0.750-   8 2.53  11 2.53  12 2.53  41 2.53  44 2.53  48 2.53  53 2.53  56 2.53
                            57 2.53  59 2.53  63 2.53  64 2.53
  61  0.750  0.750  0.000-   9 2.53  13 2.53  16 2.53  33 2.53  45 2.53  46 2.53  49 2.53  52 2.53
                            57 2.53  58 2.53  62 2.53  64 2.53
  62  0.750  0.750  0.250-  10 2.53  13 2.53  14 2.53  34 2.53  46 2.53  47 2.53  49 2.53  50 2.53
                            58 2.53  59 2.53  61 2.53  63 2.53
  63  0.750  0.750  0.500-  11 2.53  14 2.53  15 2.53  35 2.53  47 2.53  48 2.53  50 2.53  51 2.53
                            59 2.53  60 2.53  62 2.53  64 2.53
  64  0.750  0.750  0.750-  12 2.53  15 2.53  16 2.53  36 2.53  45 2.53  48 2.53  51 2.53  52 2.53
                            57 2.53  60 2.53  61 2.53  63 2.53
 
  LATTYP: Found a face centered cubic cell.
 ALAT       =    14.3115000000
  
  Lattice vectors:
  
 A1 = (   0.0000000000,   7.1557500000,   7.1557500000)
 A2 = (   7.1557500000,   0.0000000000,   7.1557500000)
 A3 = (   7.1557500000,   7.1557500000,   0.0000000000)


Analysis of symmetry for initial positions (statically):
=====================================================================
 Subroutine PRICEL returns following result:
 
  LATTYP: Found a face centered cubic cell.
 ALAT       =     3.5778750000
  
  Lattice vectors:
  
 A1 = (   0.0000000000,   1.7889375000,   1.7889375000)
 A2 = (   1.7889375000,   0.0000000000,   1.7889375000)
 A3 = (   1.7889375000,   1.7889375000,   0.0000000000)
 
  64 primitive cells build up your supercell.
 

 Routine SETGRP: Setting up the symmetry group for a 
 face centered cubic supercell.


 Subroutine GETGRP returns: Found 48 space group operations
 (whereof 48 operations were pure point group operations)
 out of a pool of 48 trial point group operations.


The static configuration has the point symmetry O_h .


Analysis of symmetry for dynamics (positions and initial velocities):
=====================================================================
 Subroutine PRICEL returns following result:
 
  LATTYP: Found a face centered cubic cell.
 ALAT       =     3.5778750000
  
  Lattice vectors:
  
 A1 = (   0.0000000000,   1.7889375000,   1.7889375000)
 A2 = (   1.7889375000,   0.0000000000,   1.7889375000)
 A3 = (   1.7889375000,   1.7889375000,   0.0000000000)
 
  64 primitive cells build up your supercell.
 

 Routine SETGRP: Setting up the symmetry group for a 
 face centered cubic supercell.


 Subroutine GETGRP returns: Found 48 space group operations
 (whereof 48 operations were pure point group operations)
 out of a pool of 48 trial point group operations.


The dynamic configuration has the point symmetry O_h .


Analysis of structural, dynamic, and magnetic symmetry:
=====================================================================
 Subroutine PRICEL returns following result:
 
  LATTYP: Found a face centered cubic cell.
 ALAT       =     3.5778750000
  
  Lattice vectors:
  
 A1 = (   0.0000000000,   1.7889375000,   1.7889375000)
 A2 = (   1.7889375000,   0.0000000000,   1.7889375000)
 A3 = (   1.7889375000,   1.7889375000,   0.0000000000)
 
  64 primitive cells build up your supercell.
 

 Routine SETGRP: Setting up the symmetry group for a 
 face centered cubic supercell.


 Subroutine GETGRP returns: Found 48 space group operations
 (whereof 48 operations were pure point group operations)
 out of a pool of 48 trial point group operations.


The magnetic configuration has the point symmetry O_h .


 Subroutine INISYM returns: Found 48 space group operations
 (whereof 48 operations are pure point group operations),
 and found    64 'primitive' translations

 
 
 KPOINTS: Zr 15x15x15                             

Automatic generation of k-mesh.
Space group operators:
 irot       det(A)        alpha          n_x          n_y          n_z        tau_x        tau_y        tau_z
    1     1.000000     0.000000     1.000000     0.000000     0.000000     0.000000     0.000000     0.000000
    2    -1.000000     0.000000     1.000000     0.000000     0.000000     0.000000     0.000000     0.000000
    3     1.000000   120.000000    -0.577350    -0.577350    -0.577350     0.000000     0.000000     0.000000
    4    -1.000000   120.000000    -0.577350    -0.577350    -0.577350     0.000000     0.000000     0.000000
    5     1.000000   120.000000     0.577350     0.577350     0.577350     0.000000     0.000000     0.000000
    6    -1.000000   120.000000     0.577350     0.577350     0.577350     0.000000     0.000000     0.000000
    7     1.000000    90.000000     0.000000     0.000000    -1.000000     0.000000     0.000000     0.000000
    8    -1.000000    90.000000     0.000000     0.000000    -1.000000     0.000000     0.000000     0.000000
    9     1.000000   180.000000     0.000000     0.707107     0.707107     0.000000     0.000000     0.000000
   10    -1.000000   180.000000     0.000000     0.707107     0.707107     0.000000     0.000000     0.000000
   11     1.000000    90.000000     0.000000     1.000000     0.000000     0.000000     0.000000     0.000000
   12    -1.000000    90.000000     0.000000     1.000000     0.000000     0.000000     0.000000     0.000000
   13     1.000000   180.000000     0.000000     0.000000     1.000000     0.000000     0.000000     0.000000
   14    -1.000000   180.000000     0.000000     0.000000     1.000000     0.000000     0.000000     0.000000
   15     1.000000   120.000000    -0.577350     0.577350     0.577350     0.000000     0.000000     0.000000
   16    -1.000000   120.000000    -0.577350     0.577350     0.577350     0.000000     0.000000     0.000000
   17     1.000000   120.000000    -0.577350     0.577350    -0.577350     0.000000     0.000000     0.000000
   18    -1.000000   120.000000    -0.577350     0.577350    -0.577350     0.000000     0.000000     0.000000
   19     1.000000    90.000000     0.000000     0.000000     1.000000     0.000000     0.000000     0.000000
   20    -1.000000    90.000000     0.000000     0.000000     1.000000     0.000000     0.000000     0.000000
   21     1.000000    90.000000    -1.000000     0.000000     0.000000     0.000000     0.000000     0.000000
   22    -1.000000    90.000000    -1.000000     0.000000     0.000000     0.000000     0.000000     0.000000
   23     1.000000   180.000000     0.707107     0.000000     0.707107     0.000000     0.000000     0.000000
   24    -1.000000   180.000000     0.707107     0.000000     0.707107     0.000000     0.000000     0.000000
   25     1.000000   120.000000     0.577350    -0.577350     0.577350     0.000000     0.000000     0.000000
   26    -1.000000   120.000000     0.577350    -0.577350     0.577350     0.000000     0.000000     0.000000
   27     1.000000   120.000000    -0.577350    -0.577350     0.577350     0.000000     0.000000     0.000000
   28    -1.000000   120.000000    -0.577350    -0.577350     0.577350     0.000000     0.000000     0.000000
   29     1.000000   180.000000     1.000000     0.000000     0.000000     0.000000     0.000000     0.000000
   30    -1.000000   180.000000     1.000000     0.000000     0.000000     0.000000     0.000000     0.000000
   31     1.000000    90.000000     0.000000    -1.000000     0.000000     0.000000     0.000000     0.000000
   32    -1.000000    90.000000     0.000000    -1.000000     0.000000     0.000000     0.000000     0.000000
   33     1.000000   180.000000     0.707107     0.707107     0.000000     0.000000     0.000000     0.000000
   34    -1.000000   180.000000     0.707107     0.707107     0.000000     0.000000     0.000000     0.000000
   35     1.000000    90.000000     1.000000     0.000000     0.000000     0.000000     0.000000     0.000000
   36    -1.000000    90.000000     1.000000     0.000000     0.000000     0.000000     0.000000     0.000000
   37     1.000000   120.000000     0.577350    -0.577350    -0.577350     0.000000     0.000000     0.000000
   38    -1.000000   120.000000     0.577350    -0.577350    -0.577350     0.000000     0.000000     0.000000
   39     1.000000   180.000000     0.000000     1.000000     0.000000     0.000000     0.000000     0.000000
   40    -1.000000   180.000000     0.000000     1.000000     0.000000     0.000000     0.000000     0.000000
   41     1.000000   120.000000     0.577350     0.577350    -0.577350     0.000000     0.000000     0.000000
   42    -1.000000   120.000000     0.577350     0.577350    -0.577350     0.000000     0.000000     0.000000
   43     1.000000   180.000000     0.000000    -0.707107     0.707107     0.000000     0.000000     0.000000
   44    -1.000000   180.000000     0.000000    -0.707107     0.707107     0.000000     0.000000     0.000000
   45     1.000000   180.000000     0.707107    -0.707107     0.000000     0.000000     0.000000     0.000000
   46    -1.000000   180.000000     0.707107    -0.707107     0.000000     0.000000     0.000000     0.000000
   47     1.000000   180.000000     0.707107     0.000000    -0.707107     0.000000     0.000000     0.000000
   48    -1.000000   180.000000     0.707107     0.000000    -0.707107     0.000000     0.000000     0.000000
 
 Subroutine IBZKPT returns following result:
 ===========================================
 
 Found     10 irreducible k-points:
 
 Following reciprocal coordinates:
            Coordinates               Weight
  0.000000  0.000000  0.000000      1.000000
  0.200000  0.000000  0.000000      8.000000
  0.400000  0.000000  0.000000      8.000000
  0.200000  0.200000  0.000000      6.000000
  0.400000  0.200000  0.000000     24.000000
 -0.400000  0.200000  0.000000     24.000000
 -0.200000  0.200000  0.000000     12.000000
  0.400000  0.400000  0.000000      6.000000
 -0.400000  0.400000  0.000000     12.000000
 -0.400000  0.400000  0.200000     24.000000
 
 Following cartesian coordinates:
            Coordinates               Weight
  0.000000  0.000000  0.000000      1.000000
 -0.013975  0.013975  0.013975      8.000000
 -0.027950  0.027950  0.027950      8.000000
  0.000000  0.000000  0.027950      6.000000
 -0.013975  0.013975  0.041924     24.000000
  0.041924 -0.041924 -0.013975     24.000000
  0.027950 -0.027950  0.000000     12.000000
  0.000000  0.000000  0.055899      6.000000
  0.055899 -0.055899  0.000000     12.000000
  0.069874 -0.041924 -0.013975     24.000000
 
 
 Subroutine IBZKPT_HF returns following result:
 ==============================================
 
 Found    125 k-points in 1st BZ
 the following    125 k-points will be used (e.g. in the exchange kernel)
 Following reciprocal coordinates:   # in IRBZ
  0.000000  0.000000  0.000000    0.00800000   1 t-inv F
  0.200000  0.000000  0.000000    0.00800000   2 t-inv F
  0.400000  0.000000  0.000000    0.00800000   3 t-inv F
  0.200000  0.200000  0.000000    0.00800000   4 t-inv F
  0.400000  0.200000  0.000000    0.00800000   5 t-inv F
 -0.400000  0.200000  0.000000    0.00800000   6 t-inv F
 -0.200000  0.200000  0.000000    0.00800000   7 t-inv F
  0.400000  0.400000  0.000000    0.00800000   8 t-inv F
 -0.400000  0.400000  0.000000    0.00800000   9 t-inv F
 -0.400000  0.400000  0.200000    0.00800000  10 t-inv F
 -0.200000  0.000000  0.000000    0.00800000   2 t-inv F
  0.000000  0.200000  0.000000    0.00800000   2 t-inv F
  0.000000 -0.200000  0.000000    0.00800000   2 t-inv F
  0.000000  0.000000  0.200000    0.00800000   2 t-inv F
  0.000000  0.000000 -0.200000    0.00800000   2 t-inv F
  0.200000  0.200000  0.200000    0.00800000   2 t-inv F
 -0.200000 -0.200000 -0.200000    0.00800000   2 t-inv F
 -0.400000  0.000000  0.000000    0.00800000   3 t-inv F
  0.000000  0.400000  0.000000    0.00800000   3 t-inv F
  0.000000 -0.400000  0.000000    0.00800000   3 t-inv F
  0.000000  0.000000  0.400000    0.00800000   3 t-inv F
  0.000000  0.000000 -0.400000    0.00800000   3 t-inv F
  0.400000  0.400000  0.400000    0.00800000   3 t-inv F
 -0.400000 -0.400000 -0.400000    0.00800000   3 t-inv F
 -0.200000 -0.200000  0.000000    0.00800000   4 t-inv F
  0.000000  0.200000  0.200000    0.00800000   4 t-inv F
  0.000000 -0.200000 -0.200000    0.00800000   4 t-inv F
  0.200000  0.000000  0.200000    0.00800000   4 t-inv F
 -0.200000  0.000000 -0.200000    0.00800000   4 t-inv F
 -0.400000 -0.200000  0.000000    0.00800000   5 t-inv F
  0.000000  0.400000  0.200000    0.00800000   5 t-inv F
  0.000000 -0.400000 -0.200000    0.00800000   5 t-inv F
  0.200000  0.000000  0.400000    0.00800000   5 t-inv F
 -0.200000  0.000000 -0.400000    0.00800000   5 t-inv F
  0.200000  0.200000 -0.200000    0.00800000   5 t-inv F
 -0.200000 -0.200000  0.200000    0.00800000   5 t-inv F
  0.400000  0.200000  0.400000    0.00800000   5 t-inv F
 -0.400000 -0.200000 -0.400000    0.00800000   5 t-inv F
  0.200000  0.400000  0.000000    0.00800000   5 t-inv F
 -0.200000 -0.400000  0.000000    0.00800000   5 t-inv F
  0.200000 -0.200000 -0.200000    0.00800000   5 t-inv F
 -0.200000  0.200000  0.200000    0.00800000   5 t-inv F
  0.400000  0.400000  0.200000    0.00800000   5 t-inv F
 -0.400000 -0.400000 -0.200000    0.00800000   5 t-inv F
  0.000000  0.200000  0.400000    0.00800000   5 t-inv F
  0.000000 -0.200000 -0.400000    0.00800000   5 t-inv F
 -0.200000  0.200000 -0.200000    0.00800000   5 t-inv F
  0.200000 -0.200000  0.200000    0.00800000   5 t-inv F
  0.200000  0.400000  0.400000    0.00800000   5 t-inv F
 -0.200000 -0.400000 -0.400000    0.00800000   5 t-inv F
  0.400000  0.000000  0.200000    0.00800000   5 t-inv F
 -0.400000  0.000000 -0.200000    0.00800000   5 t-inv F
  0.400000 -0.200000  0.000000    0.00800000   6 t-inv F
  0.000000 -0.400000  0.200000    0.00800000   6 t-inv F
  0.000000  0.400000 -0.200000    0.00800000   6 t-inv F
  0.200000  0.000000 -0.400000    0.00800000   6 t-inv F
 -0.200000  0.000000  0.400000    0.00800000   6 t-inv F
  0.200000  0.200000  0.600000    0.00800000   6 t-inv F
 -0.200000 -0.200000 -0.600000    0.00800000   6 t-inv F
 -0.400000 -0.600000 -0.400000    0.00800000   6 t-inv F
  0.400000  0.600000  0.400000    0.00800000   6 t-inv F
  0.200000 -0.400000  0.000000    0.00800000   6 t-inv F
 -0.200000  0.400000  0.000000    0.00800000   6 t-inv F
 -0.600000 -0.200000 -0.200000    0.00800000   6 t-inv F
  0.600000  0.200000  0.200000    0.00800000   6 t-inv F
 -0.400000 -0.400000 -0.600000    0.00800000   6 t-inv F
  0.400000  0.400000  0.600000    0.00800000   6 t-inv F
  0.000000  0.200000 -0.400000    0.00800000   6 t-inv F
  0.000000 -0.200000  0.400000    0.00800000   6 t-inv F
 -0.200000 -0.600000 -0.200000    0.00800000   6 t-inv F
  0.200000  0.600000  0.200000    0.00800000   6 t-inv F
 -0.600000 -0.400000 -0.400000    0.00800000   6 t-inv F
  0.600000  0.400000  0.400000    0.00800000   6 t-inv F
 -0.400000  0.000000  0.200000    0.00800000   6 t-inv F
  0.400000  0.000000 -0.200000    0.00800000   6 t-inv F
  0.200000 -0.200000  0.000000    0.00800000   7 t-inv F
  0.000000 -0.200000  0.200000    0.00800000   7 t-inv F
  0.000000  0.200000 -0.200000    0.00800000   7 t-inv F
  0.200000  0.000000 -0.200000    0.00800000   7 t-inv F
 -0.200000  0.000000  0.200000    0.00800000   7 t-inv F
  0.200000  0.200000  0.400000    0.00800000   7 t-inv F
 -0.200000 -0.200000 -0.400000    0.00800000   7 t-inv F
 -0.200000 -0.400000 -0.200000    0.00800000   7 t-inv F
  0.200000  0.400000  0.200000    0.00800000   7 t-inv F
 -0.400000 -0.200000 -0.200000    0.00800000   7 t-inv F
  0.400000  0.200000  0.200000    0.00800000   7 t-inv F
 -0.400000 -0.400000  0.000000    0.00800000   8 t-inv F
  0.000000  0.400000  0.400000    0.00800000   8 t-inv F
  0.000000 -0.400000 -0.400000    0.00800000   8 t-inv F
  0.400000  0.000000  0.400000    0.00800000   8 t-inv F
 -0.400000  0.000000 -0.400000    0.00800000   8 t-inv F
  0.400000 -0.400000  0.000000    0.00800000   9 t-inv F
  0.000000 -0.400000  0.400000    0.00800000   9 t-inv F
  0.000000  0.400000 -0.400000    0.00800000   9 t-inv F
  0.400000  0.000000 -0.400000    0.00800000   9 t-inv F
 -0.400000  0.000000  0.400000    0.00800000   9 t-inv F
  0.400000  0.400000  0.800000    0.00800000   9 t-inv F
 -0.400000 -0.400000 -0.800000    0.00800000   9 t-inv F
 -0.400000 -0.800000 -0.400000    0.00800000   9 t-inv F
  0.400000  0.800000  0.400000    0.00800000   9 t-inv F
 -0.800000 -0.400000 -0.400000    0.00800000   9 t-inv F
  0.800000  0.400000  0.400000    0.00800000   9 t-inv F
  0.400000 -0.400000 -0.200000    0.00800000  10 t-inv F
  0.200000 -0.400000  0.400000    0.00800000  10 t-inv F
 -0.200000  0.400000 -0.400000    0.00800000  10 t-inv F
  0.400000  0.200000 -0.400000    0.00800000  10 t-inv F
 -0.400000 -0.200000  0.400000    0.00800000  10 t-inv F
  0.400000  0.200000  0.800000    0.00800000  10 t-inv F
 -0.400000 -0.200000 -0.800000    0.00800000  10 t-inv F
 -0.400000 -0.800000 -0.600000    0.00800000  10 t-inv F
  0.400000  0.800000  0.600000    0.00800000  10 t-inv F
  0.200000  0.600000 -0.200000    0.00800000  10 t-inv F
 -0.200000 -0.600000  0.200000    0.00800000  10 t-inv F
  0.200000 -0.600000 -0.200000    0.00800000  10 t-inv F
 -0.200000  0.600000  0.200000    0.00800000  10 t-inv F
 -0.800000 -0.200000 -0.400000    0.00800000  10 t-inv F
  0.800000  0.200000  0.400000    0.00800000  10 t-inv F
 -0.600000 -0.400000 -0.800000    0.00800000  10 t-inv F
  0.600000  0.400000  0.800000    0.00800000  10 t-inv F
 -0.200000  0.200000  0.600000    0.00800000  10 t-inv F
  0.200000 -0.200000 -0.600000    0.00800000  10 t-inv F
 -0.400000 -0.800000 -0.200000    0.00800000  10 t-inv F
  0.400000  0.800000  0.200000    0.00800000  10 t-inv F
 -0.800000 -0.600000 -0.400000    0.00800000  10 t-inv F
  0.800000  0.600000  0.400000    0.00800000  10 t-inv F


--------------------------------------------------------------------------------------------------------




 Dimension of arrays:
   k-points           NKPTS =     10   k-points in BZ     NKDIM =     10   number of bands    NBANDS=    648
   number of dos      NEDOS =    301   number of ions     NIONS =     64
   non local maximal  LDIM  =      6   non local SUM 2l+1 LMDIM =     18
   total plane-waves  NPLWV = 262144
   max r-space proj   IRMAX =   4518   max aug-charges    IRDMAX=   8097
   dimension x,y,z NGX =    64 NGY =   64 NGZ =   64
   dimension x,y,z NGXF=   128 NGYF=  128 NGZF=  128
   support grid    NGXF=   128 NGYF=  128 NGZF=  128
   ions per type =              64
 NGX,Y,Z   is equivalent  to a cutoff of  10.51, 10.51, 10.51 a.u.
 NGXF,Y,Z  is equivalent  to a cutoff of  21.03, 21.03, 21.03 a.u.


 I would recommend the setting:
   dimension x,y,z NGX =    63 NGY =   63 NGZ =   63
 SYSTEM =  phonon of Zr bcc - omiga                
 POSCAR =  Supercell by Yi Wang                    

 Startparameter for this run:
   NWRITE =      0    write-flag & timer
   PREC   = a         normal or accurate (medium, high low for compatibility)
   ISTART =      0    job   : 0-new  1-cont  2-samecut
   ICHARG =      2    charge: 1-file 2-atom 10-const
   ISPIN  =      2    spin polarized calculation?
   LNONCOLLINEAR =      F non collinear calculations
   LSORBIT =      F    spin-orbit coupling
   INIWAV =      1    electr: 0-lowe 1-rand  2-diag
   LASPH  =      F    aspherical Exc in radial PAW
   METAGGA=      F    non-selfconsistent MetaGGA calc.

 Electronic Relaxation 1
   ENCUT  =  367.9 eV  27.04 Ry    5.20 a.u.  15.83 15.83 15.83*2*pi/ulx,y,z
   ENINI  =  367.9     initial cutoff
   ENAUG  =  703.4 eV  augmentation charge cutoff
   NELM   =     60;   NELMIN=  2; NELMDL=  0     # of ELM steps 
   EDIFF  = 0.1E-05   stopping-criterion for ELM
   LREAL  =      T    real-space projection
   NLSPLINE    = F    spline interpolate recip. space projectors
   LCOMPAT=      F    compatible to vasp.4.4
   GGA_COMPAT  = T    GGA compatible to vasp.4.4-vasp.4.6
   LMAXPAW     = -100 max onsite density
   LMAXMIX     =    2 max onsite mixed and CHGCAR
   VOSKOWN=      0    Vosko Wilk Nusair interpolation
   ROPT   =   -0.00025
 Ionic relaxation
   EDIFFG = 0.1E-04   stopping-criterion for IOM
   NSW    =    805    number of steps for IOM
   NBLOCK =      1;   KBLOCK =      1    inner block; outer block 
   IBRION =      6    ionic relax: 0-MD 1-quasi-New 2-CG
   NFREE  =      2    steps in history (QN), initial steepest desc. (CG)
   ISIF   =      2    stress and relaxation
   IWAVPR =     11    prediction:  0-non 1-charg 2-wave 3-comb
   ISYM   =      2    0-nonsym 1-usesym 2-fastsym
   LCORR  =      T    Harris-Foulkes like correction to forces

   POTIM  = 0.5000    time-step for ionic-motion
   TEIN   =    0.0    initial temperature
   TEBEG  =    0.0;   TEEND  =   0.0 temperature during run
   SMASS  =  -3.00    Nose mass-parameter (am)
   estimated Nose-frequenzy (Omega)   =  0.10E-29 period in steps =****** mass=  -0.234E-26a.u.
   SCALEE = 1.0000    scale energy and forces
   NPACO  =    256;   APACO  = 16.0  distance and # of slots for P.C.
   PSTRESS=    0.0 pullay stress

  Mass of Ions in am
   POMASS =  58.69
  Ionic Valenz
   ZVAL   =  16.00
  Atomic Wigner-Seitz radii
   RWIGS  =  -1.00
  virtual crystal weights 
   VCA    =   1.00
   NELECT =    1024.0000    total number of electrons
   NUPDOWN=      -1.0000    fix difference up-down

 DOS related values:
   EMIN   =  10.00;   EMAX   =-10.00  energy-range for DOS
   EFERMI =   0.00
   ISMEAR =     1;   SIGMA  =   0.20  broadening in eV -4-tet -1-fermi 0-gaus

 Electronic relaxation 2 (details)
   IALGO  =     38    algorithm
   LDIAG  =      T    sub-space diagonalisation (order eigenvalues)
   LSUBROT=      F    optimize rotation matrix (better conditioning)
   TURBO    =      0    0=normal 1=particle mesh
   IRESTART =      0    0=no restart 2=restart with 2 vectors
   NREBOOT  =      0    no. of reboots
   NMIN     =      0    reboot dimension
   EREF     =   0.00    reference energy to select bands
   IMIX   =      4    mixing-type and parameters
     AMIX     =   0.40;   BMIX     =  1.00
     AMIX_MAG =   1.60;   BMIX_MAG =  1.00
     AMIN     =   0.10
     WC   =   100.;   INIMIX=   1;  MIXPRE=   1;  MAXMIX= -45

 Intra band minimization:
   WEIMIN = 0.0010     energy-eigenvalue tresh-hold
   EBREAK =  0.39E-09  absolut break condition
   DEPER  =   0.30     relativ break condition  

   TIME   =   0.40     timestep for ELM

  volume/ion in A,a.u.               =      11.45        77.27
  Fermi-wavevector in a.u.,A,eV,Ry     =   1.830247  3.458665 45.576842  3.349803
  Thomas-Fermi vector in A             =   2.884754
 
 Write flags
   LWAVE  =      T    write WAVECAR
   LCHARG =      T    write CHGCAR
   LVTOT  =      F    write LOCPOT, total local potential
   LVHAR  =      F    write LOCPOT, Hartree potential only
   LELF   =      F    write electronic localiz. function (ELF)
   LORBIT =      0    0 simple, 1 ext, 2 COOP (PROOUT)


 Dipole corrections
   LMONO  =      F    monopole corrections only (constant potential shift)
   LDIPOL =      F    correct potential (dipole corrections)
   IDIPOL =      0    1-x, 2-y, 3-z, 4-all directions 
   EPSILON=  1.0000000 bulk dielectric constant

 Exchange correlation treatment:
   GGA     =    --    GGA type
   LEXCH   =     8    internal setting for exchange type
   VOSKOWN=      0    Vosko Wilk Nusair interpolation
   LHFCALC =     F    Hartree Fock is set to
   LHFONE  =     F    Hartree Fock one center treatment
   AEXX    =    0.0000 exact exchange contribution

 Linear response parameters
   LEPSILON=     F    determine dielectric tensor
   LRPA    =     F    only Hartree local field effects (RPA)
   LNABLA  =     F    use nabla operator in PAW spheres
   LVEL    =     F    velocity operator in full k-point grid
   LINTERFAST=   F  fast interpolation
   KINTER  =     0    interpolate to denser k-point grid
   CSHIFT  =0.1000    complex shift for real part using Kramers Kronig
   OMEGAMAX=  -1.0    maximum frequency
   DEG_THRESHOLD= 0.2000000E-02 threshold for treating states as degnerate
   RTIME   =    0.100 relaxation time in fs

 Orbital magnetization related:
   ORBITALMAG=     F  switch on orbital magnetization
   LCHIMAG   =     F  perturbation theory with respect to B field
   DQ        =  0.001000  dq finite difference perturbation B field



--------------------------------------------------------------------------------------------------------


 finite differences with symmetry
 charge density and potential will be updated during run
 spin polarized calculation
 Variant of blocked Davidson
 Davidson routine will perform the subspace rotation
 perform sub-space diagonalisation
    after iterative eigenvector-optimisation
 modified Broyden-mixing scheme, WC =      100.0
 initial mixing is a Kerker type mixing with AMIX =  0.4000 and BMIX =      1.0000
 Hartree-type preconditioning will be used
 using additional bands          136
 real space projection scheme for non local part
 use partial core corrections
 calculate Harris-corrections to forces 
   (improved forces if not selfconsistent)
 use gradient corrections 
 use of overlap-Matrix (Vanderbilt PP)
 Methfessel and Paxton  Order N= 1 SIGMA  =   0.20


--------------------------------------------------------------------------------------------------------


  energy-cutoff  :      367.94
  volume of cell :      732.82
      direct lattice vectors                 reciprocal lattice vectors
     0.000000000  7.155750000  7.155750000    -0.069873878  0.069873878  0.069873878
     7.155750000  0.000000000  7.155750000     0.069873878 -0.069873878  0.069873878
     7.155750000  7.155750000  0.000000000     0.069873878  0.069873878 -0.069873878

  length of vectors
    10.119758699 10.119758699 10.119758699     0.121025106  0.121025106  0.121025106


 
 k-points in units of 2pi/SCALE and weight: Zr 15x15x15                             
   0.00000000  0.00000000  0.00000000       0.008
  -0.01397478  0.01397478  0.01397478       0.064
  -0.02794955  0.02794955  0.02794955       0.064
   0.00000000  0.00000000  0.02794955       0.048
  -0.01397478  0.01397478  0.04192433       0.192
   0.04192433 -0.04192433 -0.01397478       0.192
   0.02794955 -0.02794955  0.00000000       0.096
   0.00000000  0.00000000  0.05589910       0.048
   0.05589910 -0.05589910  0.00000000       0.096
   0.06987388 -0.04192433 -0.01397478       0.192
 
 k-points in reciprocal lattice and weights: Zr 15x15x15                             
   0.00000000  0.00000000  0.00000000       0.008
   0.20000000  0.00000000  0.00000000       0.064
   0.40000000  0.00000000  0.00000000       0.064
   0.20000000  0.20000000  0.00000000       0.048
   0.40000000  0.20000000  0.00000000       0.192
  -0.40000000  0.20000000  0.00000000       0.192
  -0.20000000  0.20000000  0.00000000       0.096
   0.40000000  0.40000000  0.00000000       0.048
  -0.40000000  0.40000000  0.00000000       0.096
  -0.40000000  0.40000000  0.20000000       0.192
 
 position of ions in fractional coordinates (direct lattice) 
   0.00000000  0.00000000  0.00000000
   0.00000000  0.00000000  0.25000000
   0.00000000  0.00000000  0.50000000
   0.00000000  0.00000000  0.75000000
   0.00000000  0.25000000  0.00000000
   0.00000000  0.25000000  0.25000000
   0.00000000  0.25000000  0.50000000
   0.00000000  0.25000000  0.75000000
   0.00000000  0.50000000  0.00000000
   0.00000000  0.50000000  0.25000000
   0.00000000  0.50000000  0.50000000
   0.00000000  0.50000000  0.75000000
   0.00000000  0.75000000  0.00000000
   0.00000000  0.75000000  0.25000000
   0.00000000  0.75000000  0.50000000
   0.00000000  0.75000000  0.75000000
   0.25000000  0.00000000  0.00000000
   0.25000000  0.00000000  0.25000000
   0.25000000  0.00000000  0.50000000
   0.25000000  0.00000000  0.75000000
   0.25000000  0.25000000  0.00000000
   0.25000000  0.25000000  0.25000000
   0.25000000  0.25000000  0.50000000
   0.25000000  0.25000000  0.75000000
   0.25000000  0.50000000  0.00000000
   0.25000000  0.50000000  0.25000000
   0.25000000  0.50000000  0.50000000
   0.25000000  0.50000000  0.75000000
   0.25000000  0.75000000  0.00000000
   0.25000000  0.75000000  0.25000000
   0.25000000  0.75000000  0.50000000
   0.25000000  0.75000000  0.75000000
   0.50000000  0.00000000  0.00000000
   0.50000000  0.00000000  0.25000000
   0.50000000  0.00000000  0.50000000
   0.50000000  0.00000000  0.75000000
   0.50000000  0.25000000  0.00000000
   0.50000000  0.25000000  0.25000000
   0.50000000  0.25000000  0.50000000
   0.50000000  0.25000000  0.75000000
   0.50000000  0.50000000  0.00000000
   0.50000000  0.50000000  0.25000000
   0.50000000  0.50000000  0.50000000
   0.50000000  0.50000000  0.75000000
   0.50000000  0.75000000  0.00000000
   0.50000000  0.75000000  0.25000000
   0.50000000  0.75000000  0.50000000
   0.50000000  0.75000000  0.75000000
   0.75000000  0.00000000  0.00000000
   0.75000000  0.00000000  0.25000000
   0.75000000  0.00000000  0.50000000
   0.75000000  0.00000000  0.75000000
   0.75000000  0.25000000  0.00000000
   0.75000000  0.25000000  0.25000000
   0.75000000  0.25000000  0.50000000
   0.75000000  0.25000000  0.75000000
   0.75000000  0.50000000  0.00000000
   0.75000000  0.50000000  0.25000000
   0.75000000  0.50000000  0.50000000
   0.75000000  0.50000000  0.75000000
   0.75000000  0.75000000  0.00000000
   0.75000000  0.75000000  0.25000000
   0.75000000  0.75000000  0.50000000
   0.75000000  0.75000000  0.75000000
 
 position of ions in cartesian coordinates  (Angst):
   0.00000000  0.00000000  0.00000000
   1.78893750  1.78893750  0.00000000
   3.57787500  3.57787500  0.00000000
   5.36681250  5.36681250  0.00000000
   1.78893750  0.00000000  1.78893750
   3.57787500  1.78893750  1.78893750
   5.36681250  3.57787500  1.78893750
   7.15575000  5.36681250  1.78893750
   3.57787500  0.00000000  3.57787500
   5.36681250  1.78893750  3.57787500
   7.15575000  3.57787500  3.57787500
   8.94468750  5.36681250  3.57787500
   5.36681250  0.00000000  5.36681250
   7.15575000  1.78893750  5.36681250
   8.94468750  3.57787500  5.36681250
  10.73362500  5.36681250  5.36681250
   0.00000000  1.78893750  1.78893750
   1.78893750  3.57787500  1.78893750
   3.57787500  5.36681250  1.78893750
   5.36681250  7.15575000  1.78893750
   1.78893750  1.78893750  3.57787500
   3.57787500  3.57787500  3.57787500
   5.36681250  5.36681250  3.57787500
   7.15575000  7.15575000  3.57787500
   3.57787500  1.78893750  5.36681250
   5.36681250  3.57787500  5.36681250
   7.15575000  5.36681250  5.36681250
   8.94468750  7.15575000  5.36681250
   5.36681250  1.78893750  7.15575000
   7.15575000  3.57787500  7.15575000
   8.94468750  5.36681250  7.15575000
  10.73362500  7.15575000  7.15575000
   0.00000000  3.57787500  3.57787500
   1.78893750  5.36681250  3.57787500
   3.57787500  7.15575000  3.57787500
   5.36681250  8.94468750  3.57787500
   1.78893750  3.57787500  5.36681250
   3.57787500  5.36681250  5.36681250
   5.36681250  7.15575000  5.36681250
   7.15575000  8.94468750  5.36681250
   3.57787500  3.57787500  7.15575000
   5.36681250  5.36681250  7.15575000
   7.15575000  7.15575000  7.15575000
   8.94468750  8.94468750  7.15575000
   5.36681250  3.57787500  8.94468750
   7.15575000  5.36681250  8.94468750
   8.94468750  7.15575000  8.94468750
  10.73362500  8.94468750  8.94468750
   0.00000000  5.36681250  5.36681250
   1.78893750  7.15575000  5.36681250
   3.57787500  8.94468750  5.36681250
   5.36681250 10.73362500  5.36681250
   1.78893750  5.36681250  7.15575000
   3.57787500  7.15575000  7.15575000
   5.36681250  8.94468750  7.15575000
   7.15575000 10.73362500  7.15575000
   3.57787500  5.36681250  8.94468750
   5.36681250  7.15575000  8.94468750
   7.15575000  8.94468750  8.94468750
   8.94468750 10.73362500  8.94468750
   5.36681250  5.36681250 10.73362500
   7.15575000  7.15575000 10.73362500
   8.94468750  8.94468750 10.73362500
  10.73362500 10.73362500 10.73362500
 


--------------------------------------------------------------------------------------------------------


 k-point  1 :   0.0000 0.0000 0.0000  plane waves:   11791
 k-point  2 :   0.2000 0.0000 0.0000  plane waves:   11732
 k-point  3 :   0.4000 0.0000 0.0000  plane waves:   11741
 k-point  4 :   0.2000 0.2000 0.0000  plane waves:   11746
 k-point  5 :   0.4000 0.2000 0.0000  plane waves:   11728
 k-point  6 :  -0.4000 0.2000 0.0000  plane waves:   11743
 k-point  7 :  -0.2000 0.2000 0.0000  plane waves:   11732
 k-point  8 :   0.4000 0.4000 0.0000  plane waves:   11730
 k-point  9 :  -0.4000 0.4000 0.0000  plane waves:   11760
 k-point 10 :  -0.4000 0.4000 0.2000  plane waves:   11768

 maximum and minimum number of plane-waves per node :     11791    11728

 maximum number of plane-waves:     11791
 maximum index in each direction: 
   IXMAX=   16   IYMAX=   15   IZMAX=   15
   IXMIN=  -16   IYMIN=  -16   IZMIN=  -16

 WARNING: aliasing errors must be expected set NGX to  66 to avoid them
 NGY is ok and might be reduce to  64
 NGZ is ok and might be reduce to  64
 aliasing errors are usually negligible using standard VASP settings
 and one can safely disregard these warnings

 serial   3D FFT for wavefunctions
 parallel 3D FFT for charge:
    minimum data exchange during FFTs selected (reduces bandwidth)


 total amount of memory used by VASP on root node   829918. kBytes
========================================================================

   base      :      30000. kBytes
   nonlr-proj:      48671. kBytes
   fftplans  :      18931. kBytes
   grid      :      59310. kBytes
   one-center:       1990. kBytes
   wavefun   :     671016. kBytes
 
     INWAV:  cpu time    0.0000: real time    0.0000
 Broyden mixing: mesh for mixing (old mesh)
   NGX = 31   NGY = 31   NGZ = 31
  (NGX  =128   NGY  =128   NGZ  =128)
  gives a total of  29791 points

 initial charge density was supplied:
 charge density of overlapping atoms calculated
 number of electron    1024.0000000 magnetization      64.0000000
 keeping initial charge density in first step


--------------------------------------------------------------------------------------------------------


 Maximum index for non-local projection operator         4321
 Maximum index for augmentation-charges         1935 (set IRDMAX)


--------------------------------------------------------------------------------------------------------


 First call to EWALD:  gamma=   0.197
 Maximum number of real-space cells 3x 3x 3
 Maximum number of reciprocal cells 3x 3x 3

 FEWALD executed in parallel
    FEWALD:  cpu time    0.0070: real time    0.0069


----------------------------------------- Iteration    1(   1)  ---------------------------------------


    POTLOK:  cpu time    0.6889: real time    0.6876
    SETDIJ:  cpu time    0.1000: real time    0.0997
     EDDAV:  cpu time  426.1042: real time  425.7652
       DOS:  cpu time    0.0090: real time    0.0088
    --------------------------------------------
      LOOP:  cpu time  426.9031: real time  426.5647

 eigenvalue-minimisations  : 30096
 total energy-change (2. order) : 0.1380781E+05  (-0.5463053E+05)
 number of electron    1024.0000000 magnetization      64.0000000
 augmentation part     1024.0000000 magnetization      64.0000000

 Free energy of the ion-electron system (eV)
  ---------------------------------------------------
  alpha Z        PSCENC =      9415.99145534
  Ewald energy   TEWEN  =   -151163.59208212
  -Hartree energ DENC   =    -63206.27708491
  -exchange      EXHF   =         0.00000000
  -V(xc)+E(xc)   XCENC  =      5707.96949342
  PAW double counting   =    172361.15642774  -181272.45834873
  entropy T*S    EENTRO =        -0.00566528
  eigenvalues    EBANDS =     -2048.26444898
  atomic energy  EATOM  =    224013.29143063
  Solvation  Ediel_sol  =         0.00000000
  ---------------------------------------------------
  free energy    TOTEN  =     13807.81117712 eV

  energy without entropy =    13807.81684240  energy(sigma->0) =    13807.81306554


--------------------------------------------------------------------------------------------------------




----------------------------------------- Iteration    1(   2)  ---------------------------------------


     EDDAV:  cpu time  383.2027: real time  382.8997
       DOS:  cpu time    0.0100: real time    0.0094
    --------------------------------------------
      LOOP:  cpu time  383.2137: real time  382.9099

 eigenvalue-minimisations  : 25920
 total energy-change (2. order) :-0.1302611E+05  (-0.1261594E+05)
 number of electron    1024.0000000 magnetization      64.0000000
 augmentation part     1024.0000000 magnetization      64.0000000

 Free energy of the ion-electron system (eV)
  ---------------------------------------------------
  alpha Z        PSCENC =      9415.99145534
  Ewald energy   TEWEN  =   -151163.59208212
  -Hartree energ DENC   =    -63206.27708491
  -exchange      EXHF   =         0.00000000
  -V(xc)+E(xc)   XCENC  =      5707.96949342
  PAW double counting   =    172361.15642774  -181272.45834873
  entropy T*S    EENTRO =         0.00039468
  eigenvalues    EBANDS =    -15074.37596372
  atomic energy  EATOM  =    224013.29143063
  Solvation  Ediel_sol  =         0.00000000
  ---------------------------------------------------
  free energy    TOTEN  =       781.70572234 eV

  energy without entropy =      781.70532766  energy(sigma->0) =      781.70559078


--------------------------------------------------------------------------------------------------------




----------------------------------------- Iteration    1(   3)  ---------------------------------------


     EDDAV:  cpu time  401.0220: real time  400.7219
       DOS:  cpu time    0.0110: real time    0.0103
    --------------------------------------------
      LOOP:  cpu time  401.0340: real time  400.7330

 eigenvalue-minimisations  : 26712
 total energy-change (2. order) :-0.1152517E+04  (-0.9535842E+03)
 number of electron    1024.0000000 magnetization      64.0000000
 augmentation part     1024.0000000 magnetization      64.0000000

 Free energy of the ion-electron system (eV)
  ---------------------------------------------------
  alpha Z        PSCENC =      9415.99145534
  Ewald energy   TEWEN  =   -151163.59208212
  -Hartree energ DENC   =    -63206.27708491
  -exchange      EXHF   =         0.00000000
  -V(xc)+E(xc)   XCENC  =      5707.96949342
  PAW double counting   =    172361.15642774  -181272.45834873
  entropy T*S    EENTRO =         0.01770979
  eigenvalues    EBANDS =    -16226.90980942
  atomic energy  EATOM  =    224013.29143063
  Solvation  Ediel_sol  =         0.00000000
  ---------------------------------------------------
  free energy    TOTEN  =      -370.81080825 eV

  energy without entropy =     -370.82851804  energy(sigma->0) =     -370.81671151


--------------------------------------------------------------------------------------------------------




----------------------------------------- Iteration    1(   4)  ---------------------------------------


     EDDAV:  cpu time  403.2207: real time  402.9006
       DOS:  cpu time    0.0100: real time    0.0107
    --------------------------------------------
      LOOP:  cpu time  403.2307: real time  402.9120

 eigenvalue-minimisations  : 27872
 total energy-change (2. order) :-0.5890591E+02  (-0.5750284E+02)
 number of electron    1024.0000000 magnetization      64.0000000
 augmentation part     1024.0000000 magnetization      64.0000000

 Free energy of the ion-electron system (eV)
  ---------------------------------------------------
  alpha Z        PSCENC =      9415.99145534
  Ewald energy   TEWEN  =   -151163.59208212
  -Hartree energ DENC   =    -63206.27708491
  -exchange      EXHF   =         0.00000000
  -V(xc)+E(xc)   XCENC  =      5707.96949342
  PAW double counting   =    172361.15642774  -181272.45834873
  entropy T*S    EENTRO =         0.09130839
  eigenvalues    EBANDS =    -16285.88931653
  atomic energy  EATOM  =    224013.29143063
  Solvation  Ediel_sol  =         0.00000000
  ---------------------------------------------------
  free energy    TOTEN  =      -429.71671676 eV

  energy without entropy =     -429.80802515  energy(sigma->0) =     -429.74715289


--------------------------------------------------------------------------------------------------------




----------------------------------------- Iteration    1(   5)  ---------------------------------------


     EDDAV:  cpu time  382.0089: real time 5853.3309
       DOS:  cpu time    0.0110: real time    0.0103
    CHARGE:  cpu time   12.7221: real time   12.7112
    MIXING:  cpu time    0.0120: real time    0.0124
    --------------------------------------------
      LOOP:  cpu time  394.7550: real time 5866.0656

 eigenvalue-minimisations  : 27488
 total energy-change (2. order) :-0.8730284E+00  (-0.8724154E+00)
 number of electron    1024.0003426 magnetization      58.8889795
 augmentation part      572.9227105 magnetization      46.7621501

 Broyden mixing:
  rms(total) = 0.68279E+01    rms(broyden)= 0.68156E+01
  rms(prec ) = 0.92536E+01
  weight for this iteration     100.00

 Free energy of the ion-electron system (eV)
  ---------------------------------------------------
  alpha Z        PSCENC =      9415.99145534
  Ewald energy   TEWEN  =   -151163.59208212
  -Hartree energ DENC   =    -63206.27708491
  -exchange      EXHF   =         0.00000000
  -V(xc)+E(xc)   XCENC  =      5707.96949342
  PAW double counting   =    172361.15642774  -181272.45834873
  entropy T*S    EENTRO =         0.09203128
  eigenvalues    EBANDS =    -16286.76306782
  atomic energy  EATOM  =    224013.29143063
  Solvation  Ediel_sol  =         0.00000000
  ---------------------------------------------------
  free energy    TOTEN  =      -430.58974516 eV

  energy without entropy =     -430.68177643  energy(sigma->0) =     -430.62042225


--------------------------------------------------------------------------------------------------------




----------------------------------------- Iteration    1(   6)  ---------------------------------------


    POTLOK:  cpu time    0.6189: real time    0.6194
    SETDIJ:  cpu time    0.0960: real time    0.0960
     EDDAV:  cpu time  361.5210: real time  361.2264
       DOS:  cpu time    0.0100: real time    0.0102
    CHARGE:  cpu time   12.1372: real time   12.1274
    MIXING:  cpu time    0.0140: real time    0.0127
    --------------------------------------------
      LOOP:  cpu time  374.3981: real time  374.0928

 eigenvalue-minimisations  : 27312
 total energy-change (2. order) : 0.3168950E+02  (-0.6243297E+02)
 number of electron    1024.0003810 magnetization      51.4821407
 augmentation part      631.2110536 magnetization      46.9538015

 Broyden mixing:
  rms(total) = 0.52970E+01    rms(broyden)= 0.52954E+01
  rms(prec ) = 0.66180E+01
  weight for this iteration     100.00

 eigenvalues of (default mixing * dielectric matrix)
  average eigenvalue GAMMA=   0.5327
  0.5327

 Free energy of the ion-electron system (eV)
  ---------------------------------------------------
  alpha Z        PSCENC =      9415.99145534
  Ewald energy   TEWEN  =   -151163.59208212
  -Hartree energ DENC   =    -59943.09180774
  -exchange      EXHF   =         0.00000000
  -V(xc)+E(xc)   XCENC  =      5583.81957622
  PAW double counting   =    167710.94942951  -176301.59691291
  entropy T*S    EENTRO =        -0.32045954
  eigenvalues    EBANDS =    -19714.35087504
  atomic energy  EATOM  =    224013.29143063
  Solvation  Ediel_sol  =         0.00000000
  ---------------------------------------------------
  free energy    TOTEN  =      -398.90024565 eV

  energy without entropy =     -398.57978611  energy(sigma->0) =     -398.79342580


--------------------------------------------------------------------------------------------------------




----------------------------------------- Iteration    1(   7)  ---------------------------------------


    POTLOK:  cpu time    0.6179: real time    0.6175
    SETDIJ:  cpu time    0.0960: real time    0.0960
     EDDAV:  cpu time  360.1682: real time  359.8751
       DOS:  cpu time    0.0100: real time    0.0103
    CHARGE:  cpu time   12.4441: real time   12.4336
    MIXING:  cpu time    0.0130: real time    0.0132
    --------------------------------------------
      LOOP:  cpu time  373.3502: real time  373.0466

 eigenvalue-minimisations  : 27144
 total energy-change (2. order) : 0.3142923E+02  (-0.1234962E+02)
 number of electron    1024.0003643 magnetization      43.9909691
 augmentation part      606.1538813 magnetization      36.1370031

 Broyden mixing:
  rms(total) = 0.58429E+00    rms(broyden)= 0.58146E+00
  rms(prec ) = 0.69428E+00
  weight for this iteration     100.00

 eigenvalues of (default mixing * dielectric matrix)
  average eigenvalue GAMMA=   0.8453
  1.1160  0.5745

 Free energy of the ion-electron system (eV)
  ---------------------------------------------------
  alpha Z        PSCENC =      9415.99145534
  Ewald energy   TEWEN  =   -151163.59208212
  -Hartree energ DENC   =    -61140.70118114
  -exchange      EXHF   =         0.00000000
  -V(xc)+E(xc)   XCENC  =      5628.28530944
  PAW double counting   =    170318.84060073  -179188.02320338
  entropy T*S    EENTRO =        -0.16183137
  eigenvalues    EBANDS =    -18251.40151303
  atomic energy  EATOM  =    224013.29143063
  Solvation  Ediel_sol  =         0.00000000
  ---------------------------------------------------
  free energy    TOTEN  =      -367.47101489 eV

  energy without entropy =     -367.30918352  energy(sigma->0) =     -367.41707110


--------------------------------------------------------------------------------------------------------




----------------------------------------- Iteration    1(   8)  ---------------------------------------


    POTLOK:  cpu time    0.6189: real time    0.6189
    SETDIJ:  cpu time    0.0960: real time    0.0960
     EDDAV:  cpu time  356.9237: real time  356.6326
       DOS:  cpu time    0.0100: real time    0.0104
    CHARGE:  cpu time   12.5191: real time   12.5090
    MIXING:  cpu time    0.0140: real time    0.0138
    --------------------------------------------
      LOOP:  cpu time  370.1827: real time  369.8814

 eigenvalue-minimisations  : 27008
 total energy-change (2. order) :-0.7942030E-01  (-0.1090680E+00)
 number of electron    1024.0003643 magnetization      40.3079057
 augmentation part      605.9390397 magnetization      33.6221513

 Broyden mixing:
  rms(total) = 0.26994E+00    rms(broyden)= 0.26968E+00
  rms(prec ) = 0.34610E+00
  weight for this iteration     100.00

 eigenvalues of (default mixing * dielectric matrix)
  average eigenvalue GAMMA=   1.0907
  0.5827  0.9723  1.7170

 Free energy of the ion-electron system (eV)
  ---------------------------------------------------
  alpha Z        PSCENC =      9415.99145534
  Ewald energy   TEWEN  =   -151163.59208212
  -Hartree energ DENC   =    -61005.06697814
  -exchange      EXHF   =         0.00000000
  -V(xc)+E(xc)   XCENC  =      5623.71291817
  PAW double counting   =    170973.55857723  -179945.53414015
  entropy T*S    EENTRO =        -0.14292093
  eigenvalues    EBANDS =    -18279.76869522
  atomic energy  EATOM  =    224013.29143063
  Solvation  Ediel_sol  =         0.00000000
  ---------------------------------------------------
  free energy    TOTEN  =      -367.55043519 eV

  energy without entropy =     -367.40751426  energy(sigma->0) =     -367.50279488


--------------------------------------------------------------------------------------------------------




----------------------------------------- Iteration    1(   9)  ---------------------------------------


    POTLOK:  cpu time    0.6199: real time    0.6204
    SETDIJ:  cpu time    0.0960: real time    0.0961
     EDDAV:  cpu time  365.5744: real time  365.2756
       DOS:  cpu time    0.0100: real time    0.0104
    CHARGE:  cpu time   12.4061: real time   12.3962
    MIXING:  cpu time    0.0140: real time    0.0144
    --------------------------------------------
      LOOP:  cpu time  378.7224: real time  378.4138

 eigenvalue-minimisations  : 27904
 total energy-change (2. order) : 0.2118254E-01  (-0.1927945E-01)
 number of electron    1024.0003647 magnetization      40.3494298
 augmentation part      606.5204939 magnetization      34.6384400

 Broyden mixing:
  rms(total) = 0.11088E+00    rms(broyden)= 0.11085E+00
  rms(prec ) = 0.11372E+00
  weight for this iteration     100.00

 eigenvalues of (default mixing * dielectric matrix)
  average eigenvalue GAMMA=   1.1368
  2.1610  1.1790  0.5900  0.6171

 Free energy of the ion-electron system (eV)
  ---------------------------------------------------
  alpha Z        PSCENC =      9415.99145534
  Ewald energy   TEWEN  =   -151163.59208212
  -Hartree energ DENC   =    -60888.25673641
  -exchange      EXHF   =         0.00000000
  -V(xc)+E(xc)   XCENC  =      5619.96841783
  PAW double counting   =    171404.61589730  -180434.63331566
  entropy T*S    EENTRO =        -0.14341931
  eigenvalues    EBANDS =    -18334.77090025
  atomic energy  EATOM  =    224013.29143063
  Solvation  Ediel_sol  =         0.00000000
  ---------------------------------------------------
  free energy    TOTEN  =      -367.52925265 eV

  energy without entropy =     -367.38583334  energy(sigma->0) =     -367.48144621


--------------------------------------------------------------------------------------------------------




----------------------------------------- Iteration    1(  10)  ---------------------------------------


    POTLOK:  cpu time    0.6179: real time    0.6181
    SETDIJ:  cpu time    0.0960: real time    0.0960
     EDDAV:  cpu time  367.6251: real time  367.3257
       DOS:  cpu time    0.0100: real time    0.0104
    CHARGE:  cpu time   12.3891: real time   12.3791
    MIXING:  cpu time    0.0160: real time    0.0151
    --------------------------------------------
      LOOP:  cpu time  380.7561: real time  380.4453

 eigenvalue-minimisations  : 28184
 total energy-change (2. order) :-0.2424408E-02  (-0.1173456E-02)
 number of electron    1024.0003646 magnetization      40.9169875
 augmentation part      606.5447893 magnetization      35.2892705

 Broyden mixing:
  rms(total) = 0.27424E-01    rms(broyden)= 0.27333E-01
  rms(prec ) = 0.28692E-01
  weight for this iteration     100.00

 eigenvalues of (default mixing * dielectric matrix)
  average eigenvalue GAMMA=   1.2336
  2.1764  1.5903  1.1945  0.5857  0.6211

 Free energy of the ion-electron system (eV)
  ---------------------------------------------------
  alpha Z        PSCENC =      9415.99145534
  Ewald energy   TEWEN  =   -151163.59208212
  -Hartree energ DENC   =    -60875.45863784
  -exchange      EXHF   =         0.00000000
  -V(xc)+E(xc)   XCENC  =      5619.69155147
  PAW double counting   =    171511.83119253  -180549.49041875
  entropy T*S    EENTRO =        -0.14361486
  eigenvalues    EBANDS =    -18339.65255347
  atomic energy  EATOM  =    224013.29143063
  Solvation  Ediel_sol  =         0.00000000
  ---------------------------------------------------
  free energy    TOTEN  =      -367.53167705 eV

  energy without entropy =     -367.38806220  energy(sigma->0) =     -367.48380543


--------------------------------------------------------------------------------------------------------




----------------------------------------- Iteration    1(  11)  ---------------------------------------


    POTLOK:  cpu time    0.6269: real time    0.6261
    SETDIJ:  cpu time    0.0990: real time    0.0993
     EDDAV:  cpu time  360.0953: real time  359.8017
       DOS:  cpu time    0.0100: real time    0.0104
    CHARGE:  cpu time   12.2051: real time   12.1942
    MIXING:  cpu time    0.0150: real time    0.0152
    --------------------------------------------
      LOOP:  cpu time  373.0513: real time  372.7476

 eigenvalue-minimisations  : 26624
 total energy-change (2. order) :-0.2807383E-02  (-0.4103678E-03)
 number of electron    1024.0003646 magnetization      40.9518869
 augmentation part      606.4681620 magnetization      35.2086518

 Broyden mixing:
  rms(total) = 0.12202E-01    rms(broyden)= 0.12092E-01
  rms(prec ) = 0.15206E-01
  weight for this iteration     100.00

 eigenvalues of (default mixing * dielectric matrix)
  average eigenvalue GAMMA=   1.1900
  2.2962  1.6725  1.2657  0.5796  0.6836  0.6423

 Free energy of the ion-electron system (eV)
  ---------------------------------------------------
  alpha Z        PSCENC =      9415.99145534
  Ewald energy   TEWEN  =   -151163.59208212
  -Hartree energ DENC   =    -60877.96775884
  -exchange      EXHF   =         0.00000000
  -V(xc)+E(xc)   XCENC  =      5619.80499392
  PAW double counting   =    171587.82724670  -180626.43741883
  entropy T*S    EENTRO =        -0.14354471
  eigenvalues    EBANDS =    -18336.30880653
  atomic energy  EATOM  =    224013.29143063
  Solvation  Ediel_sol  =         0.00000000
  ---------------------------------------------------
  free energy    TOTEN  =      -367.53448444 eV

  energy without entropy =     -367.39093973  energy(sigma->0) =     -367.48663620


--------------------------------------------------------------------------------------------------------




----------------------------------------- Iteration    1(  12)  ---------------------------------------


    POTLOK:  cpu time    0.6169: real time    0.6169
    SETDIJ:  cpu time    0.0990: real time    0.0991
     EDDAV:  cpu time  384.1746: real time  383.8614
       DOS:  cpu time    0.0100: real time    0.0100
    CHARGE:  cpu time   12.6771: real time   12.6677
    MIXING:  cpu time    0.0180: real time    0.0171
    --------------------------------------------
      LOOP:  cpu time  397.5966: real time  397.2738

 eigenvalue-minimisations  : 28456
 total energy-change (2. order) :-0.1518508E-03  (-0.5537719E-04)
 number of electron    1024.0003646 magnetization      40.9638892
 augmentation part      606.5099347 magnetization      35.1999308

 Broyden mixing:
  rms(total) = 0.28301E-02    rms(broyden)= 0.28121E-02
  rms(prec ) = 0.29977E-02
  weight for this iteration     100.00

 eigenvalues of (default mixing * dielectric matrix)
  average eigenvalue GAMMA=   1.2224
  2.4723  1.7020  1.4374  0.9976  0.5817  0.6272  0.7388

 Free energy of the ion-electron system (eV)
  ---------------------------------------------------
  alpha Z        PSCENC =      9415.99145534
  Ewald energy   TEWEN  =   -151163.59208212
  -Hartree energ DENC   =    -60874.26779035
  -exchange      EXHF   =         0.00000000
  -V(xc)+E(xc)   XCENC  =      5619.66491527
  PAW double counting   =    171614.28826636  -180653.63216764
  entropy T*S    EENTRO =        -0.14404411
  eigenvalues    EBANDS =    -18339.13461966
  atomic energy  EATOM  =    224013.29143063
  Solvation  Ediel_sol  =         0.00000000
  ---------------------------------------------------
  free energy    TOTEN  =      -367.53463629 eV

  energy without entropy =     -367.39059217  energy(sigma->0) =     -367.48662158


--------------------------------------------------------------------------------------------------------




----------------------------------------- Iteration    1(  13)  ---------------------------------------


    POTLOK:  cpu time    0.6259: real time    0.6261
    SETDIJ:  cpu time    0.1010: real time    0.1001
     EDDAV:  cpu time  367.6091: real time  367.3115
       DOS:  cpu time    0.0110: real time    0.0103
    CHARGE:  cpu time   12.4791: real time   12.4679
    MIXING:  cpu time    0.0170: real time    0.0176
    --------------------------------------------
      LOOP:  cpu time  380.8441: real time  380.5348

 eigenvalue-minimisations  : 26704
 total energy-change (2. order) :-0.2686289E-04  (-0.4107143E-05)
 number of electron    1024.0003646 magnetization      40.9672961
 augmentation part      606.5166103 magnetization      35.1962543

 Broyden mixing:
  rms(total) = 0.17091E-02    rms(broyden)= 0.17082E-02
  rms(prec ) = 0.22597E-02
  weight for this iteration     100.00

 eigenvalues of (default mixing * dielectric matrix)
  average eigenvalue GAMMA=   1.2195
  2.5155  1.8130  1.4250  1.2679  0.5830  0.6230  0.7641  0.7641

 Free energy of the ion-electron system (eV)
  ---------------------------------------------------
  alpha Z        PSCENC =      9415.99145534
  Ewald energy   TEWEN  =   -151163.59208212
  -Hartree energ DENC   =    -60873.73121919
  -exchange      EXHF   =         0.00000000
  -V(xc)+E(xc)   XCENC  =      5619.64427665
  PAW double counting   =    171627.21834450  -180666.57026787
  entropy T*S    EENTRO =        -0.14405223
  eigenvalues    EBANDS =    -18339.64254885
  atomic energy  EATOM  =    224013.29143063
  Solvation  Ediel_sol  =         0.00000000
  ---------------------------------------------------
  free energy    TOTEN  =      -367.53466315 eV

  energy without entropy =     -367.39061092  energy(sigma->0) =     -367.48664574


--------------------------------------------------------------------------------------------------------




----------------------------------------- Iteration    1(  14)  ---------------------------------------


    POTLOK:  cpu time    0.6249: real time    0.6255
    SETDIJ:  cpu time    0.0980: real time    0.0972
     EDDAV:  cpu time  316.2939: real time  316.0368
       DOS:  cpu time    0.0100: real time    0.0104
    CHARGE:  cpu time   12.6751: real time   12.6647
    MIXING:  cpu time    0.0190: real time    0.0186
    --------------------------------------------
      LOOP:  cpu time  329.7229: real time  329.4538

 eigenvalue-minimisations  : 21776
 total energy-change (2. order) : 0.1800762E-04  (-0.6510065E-06)
 number of electron    1024.0003646 magnetization      40.9635809
 augmentation part      606.5119802 magnetization      35.1931870

 Broyden mixing:
  rms(total) = 0.62701E-03    rms(broyden)= 0.62673E-03
  rms(prec ) = 0.76607E-03
  weight for this iteration     100.00

 eigenvalues of (default mixing * dielectric matrix)
  average eigenvalue GAMMA=   1.2718
  2.5562  2.2671  1.6792  1.3710  0.8637  0.8637  0.5824  0.6232  0.6399

 Free energy of the ion-electron system (eV)
  ---------------------------------------------------
  alpha Z        PSCENC =      9415.99145534
  Ewald energy   TEWEN  =   -151163.59208212
  -Hartree energ DENC   =    -60874.28247213
  -exchange      EXHF   =         0.00000000
  -V(xc)+E(xc)   XCENC  =      5619.66562810
  PAW double counting   =    171632.36036140  -180671.46329545
  entropy T*S    EENTRO =        -0.14402585
  eigenvalues    EBANDS =    -18339.36164506
  atomic energy  EATOM  =    224013.29143063
  Solvation  Ediel_sol  =         0.00000000
  ---------------------------------------------------
  free energy    TOTEN  =      -367.53464514 eV

  energy without entropy =     -367.39061929  energy(sigma->0) =     -367.48663653


--------------------------------------------------------------------------------------------------------




----------------------------------------- Iteration    1(  15)  ---------------------------------------


    POTLOK:  cpu time    0.6259: real time    0.6255
    SETDIJ:  cpu time    0.0970: real time    0.0970
     EDDAV:  cpu time  233.3365: real time  233.1471
       DOS:  cpu time    0.0100: real time    0.0102
    CHARGE:  cpu time   12.7231: real time   12.7127
    MIXING:  cpu time    0.0200: real time    0.0194
    --------------------------------------------
      LOOP:  cpu time  246.8135: real time  246.6128

 eigenvalue-minimisations  : 13904
 total energy-change (2. order) : 0.1141493E-04  (-0.7618776E-07)
 number of electron    1024.0003646 magnetization      40.9626963
 augmentation part      606.5101650 magnetization      35.1928842

 Broyden mixing:
  rms(total) = 0.13137E-03    rms(broyden)= 0.12987E-03
  rms(prec ) = 0.15884E-03
  weight for this iteration     100.00

 eigenvalues of (default mixing * dielectric matrix)
  average eigenvalue GAMMA=   1.2685
  2.6233  2.4829  1.7391  1.3562  1.0422  0.8454  0.7500  0.5823  0.6265  0.6369

 Free energy of the ion-electron system (eV)
  ---------------------------------------------------
  alpha Z        PSCENC =      9415.99145534
  Ewald energy   TEWEN  =   -151163.59208212
  -Hartree energ DENC   =    -60874.60668640
  -exchange      EXHF   =         0.00000000
  -V(xc)+E(xc)   XCENC  =      5619.67711385
  PAW double counting   =    171634.72412123  -180673.64161695
  entropy T*S    EENTRO =        -0.14400496
  eigenvalues    EBANDS =    -18339.23436435
  atomic energy  EATOM  =    224013.29143063
  Solvation  Ediel_sol  =         0.00000000
  ---------------------------------------------------
  free energy    TOTEN  =      -367.53463373 eV

  energy without entropy =     -367.39062877  energy(sigma->0) =     -367.48663207


--------------------------------------------------------------------------------------------------------




----------------------------------------- Iteration    1(  16)  ---------------------------------------


    POTLOK:  cpu time    0.6259: real time    0.6254
    SETDIJ:  cpu time    0.0970: real time    0.0969
     EDDAV:  cpu time  230.3160: real time  230.1292
       DOS:  cpu time    0.0100: real time    0.0099
    --------------------------------------------
      LOOP:  cpu time  231.0489: real time  230.8621

 eigenvalue-minimisations  : 13640
 total energy-change (2. order) : 0.7377821E-07  (-0.1902904E-07)
 number of electron    1024.0003646 magnetization      40.9626963
 augmentation part      606.5101650 magnetization      35.1928842

 Free energy of the ion-electron system (eV)
  ---------------------------------------------------
  alpha Z        PSCENC =      9415.99145534
  Ewald energy   TEWEN  =   -151163.59208212
  -Hartree energ DENC   =    -60874.59427574
  -exchange      EXHF   =         0.00000000
  -V(xc)+E(xc)   XCENC  =      5619.67659297
  PAW double counting   =    171634.65541525  -180673.56283460
  entropy T*S    EENTRO =        -0.14400111
  eigenvalues    EBANDS =    -18339.25633427
  atomic energy  EATOM  =    224013.29143063
  Solvation  Ediel_sol  =         0.00000000
  ---------------------------------------------------
  free energy    TOTEN  =      -367.53463365 eV

  energy without entropy =     -367.39063255  energy(sigma->0) =     -367.48663328


--------------------------------------------------------------------------------------------------------




 average (electrostatic) potential at core
  the test charge radii are     0.8614
  (the norm of the test charge is              1.0000)
       1 -79.9286       2 -79.9286       3 -79.9286       4 -79.9286       5 -79.9286
       6 -79.9286       7 -79.9286       8 -79.9286       9 -79.9286      10 -79.9286
      11 -79.9286      12 -79.9286      13 -79.9286      14 -79.9286      15 -79.9286
      16 -79.9286      17 -79.9286      18 -79.9286      19 -79.9286      20 -79.9286
      21 -79.9286      22 -79.9286      23 -79.9286      24 -79.9286      25 -79.9286
      26 -79.9286      27 -79.9286      28 -79.9286      29 -79.9286      30 -79.9286
      31 -79.9286      32 -79.9286      33 -79.9286      34 -79.9286      35 -79.9286
      36 -79.9286      37 -79.9286      38 -79.9286      39 -79.9286      40 -79.9286
      41 -79.9286      42 -79.9286      43 -79.9286      44 -79.9286      45 -79.9286
      46 -79.9286      47 -79.9286      48 -79.9286      49 -79.9286      50 -79.9286
      51 -79.9286      52 -79.9286      53 -79.9286      54 -79.9286      55 -79.9286
      56 -79.9286      57 -79.9286      58 -79.9286      59 -79.9286      60 -79.9286
      61 -79.9286      62 -79.9286      63 -79.9286      64 -79.9286
 
 
 
 E-fermi :   7.2551     XC(G=0): -13.4562     alpha+bet :-14.1406


 spin component 1

 k-point     1 :       0.0000    0.0000    0.0000
  band No.  band energies     occupation 
      1     -56.6946      1.00000
      2     -56.6946      1.00000
      3     -56.6946      1.00000
      4     -56.6946      1.00000
      5     -56.6907      1.00000
      6     -56.6907      1.00000
      7     -56.6907      1.00000
      8     -56.6699      1.00000
      9     -56.6699      1.00000
     10     -56.6699      1.00000
     11     -56.6699      1.00000
     12     -56.6699      1.00000
     13     -56.6699      1.00000
     14     -56.6698      1.00000
     15     -56.6698      1.00000
     16     -56.6698      1.00000
     17     -56.6698      1.00000
     18     -56.6698      1.00000
     19     -56.6698      1.00000
     20     -56.6698      1.00000
     21     -56.6698      1.00000
     22     -56.6698      1.00000
     23     -56.6698      1.00000
     24     -56.6698      1.00000
     25     -56.6698      1.00000
     26     -56.6698      1.00000
     27     -56.6698      1.00000
     28     -56.6698      1.00000
     29     -56.6698      1.00000
     30     -56.6698      1.00000
     31     -56.6698      1.00000
     32     -56.6454      1.00000
     33     -56.6454      1.00000
     34     -56.6454      1.00000
     35     -56.6454      1.00000
     36     -56.6454      1.00000
     37     -56.6454      1.00000
     38     -56.6454      1.00000
     39     -56.6454      1.00000
     40     -56.6454      1.00000
     41     -56.6454      1.00000
     42     -56.6454      1.00000
     43     -56.6454      1.00000
     44     -56.6451      1.00000
     45     -56.6451      1.00000
     46     -56.6451      1.00000
     47     -56.6451      1.00000
     48     -56.6451      1.00000
     49     -56.6451      1.00000
     50     -56.6451      1.00000
     51     -56.6451      1.00000
     52     -56.6451      1.00000
     53     -56.6451      1.00000
     54     -56.6451      1.00000
     55     -56.6451      1.00000
     56     -56.6103      1.00000
     57     -56.6103      1.00000
     58     -56.6103      1.00000
     59     -56.6103      1.00000
     60     -56.6103      1.00000
     61     -56.6103      1.00000
     62     -56.6103      1.00000
     63     -56.6103      1.00000
     64     -56.6016      1.00000
     65     -56.6016      1.00000
     66     -56.6016      1.00000
     67     -56.6016      1.00000
     68     -56.6016      1.00000
     69     -56.6016      1.00000
     70     -56.5922      1.00000
     71     -56.5922      1.00000
     72     -56.5922      1.00000
     73     -56.5922      1.00000
     74     -56.5922      1.00000
     75     -56.5922      1.00000
     76     -56.5922      1.00000
     77     -56.5922      1.00000
     78     -56.5922      1.00000
     79     -56.5922      1.00000
     80     -56.5922      1.00000
     81     -56.5922      1.00000
     82     -56.5922      1.00000
     83     -56.5922      1.00000
     84     -56.5922      1.00000
     85     -56.5922      1.00000
     86     -56.5922      1.00000
     87     -56.5922      1.00000
     88     -56.5922      1.00000
     89     -56.5922      1.00000
     90     -56.5922      1.00000
     91     -56.5922      1.00000
     92     -56.5922      1.00000
     93     -56.5922      1.00000
     94     -56.5920      1.00000
     95     -56.5920      1.00000
     96     -56.5920      1.00000
     97     -56.5920      1.00000
     98     -56.5920      1.00000
     99     -56.5920      1.00000
    100     -56.5920      1.00000
    101     -56.5920      1.00000
    102     -56.5920      1.00000
    103     -56.5920      1.00000
    104     -56.5920      1.00000
    105     -56.5920      1.00000
    106     -56.5918      1.00000
    107     -56.5918      1.00000
    108     -56.5918      1.00000
    109     -56.5918      1.00000
    110     -56.5918      1.00000
    111     -56.5918      1.00000
    112     -56.5892      1.00000
    113     -56.5892      1.00000
    114     -56.5892      1.00000
    115     -56.5891      1.00000
[...]
      1.788938  3.577875  1.788938     0.068583    0.038999    0.096956  
      3.577875  5.366812  1.788938     0.068583    0.038999    0.096956  
      5.366812  7.155750  1.788938     0.068583    0.038999    0.096956  
      1.788938  1.788938  3.577875     0.068583    0.038999    0.096956  
      3.577875  3.577875  3.577875     0.068583    0.038999    0.096956  
      5.366812  5.366812  3.577875     0.068583    0.038999    0.096956  
      7.155750  7.155750  3.577875     0.068583    0.038999    0.096956  
      3.577875  1.788938  5.366812     0.068583    0.038999    0.096956  
      5.366812  3.577875  5.366812     0.068583    0.038999    0.096956  
      7.155750  5.366812  5.366812     0.068583    0.038999    0.096956  
      8.944688  7.155750  5.366812     0.068583    0.038999    0.096956  
      5.366812  1.788938  7.155750     0.068583    0.038999    0.096956  
      7.155750  3.577875  7.155750     0.068583    0.038999    0.096956  
      8.944688  5.366812  7.155750     0.068583    0.038999    0.096956  
     10.733625  7.155750  7.155750     0.068583    0.038999    0.096956  
      0.000000  3.577875  3.577875     0.068583    0.038999    0.096956  
      1.788938  5.366812  3.577875     0.068583    0.038999    0.096956  
      3.577875  7.155750  3.577875     0.068583    0.038999    0.096956  
      5.366812  8.944688  3.577875     0.068583    0.038999    0.096956  
      1.788938  3.577875  5.366812     0.068583    0.038999    0.096956  
      3.577875  5.366812  5.366812     0.068583    0.038999    0.096956  
      5.366812  7.155750  5.366812     0.068583    0.038999    0.096956  
      7.155750  8.944688  5.366812     0.068583    0.038999    0.096956  
      3.577875  3.577875  7.155750     0.068583    0.038999    0.096956  
      5.366812  5.366812  7.155750     0.068583    0.038999    0.096956  
      7.155750  7.155750  7.155750     0.068583    0.038999    0.096956  
      8.944688  8.944688  7.155750     0.068583    0.038999    0.096956  
      5.366812  3.577875  8.944688     0.068583    0.038999    0.096956  
      7.155750  5.366812  8.944688     0.068583    0.038999    0.096956  
      8.944688  7.155750  8.944688     0.068583    0.038999    0.096956  
     10.733625  8.944688  8.944688     0.068583    0.038999    0.096956  
      0.000000  5.366812  5.366812     0.068583    0.038999    0.096956  
      1.788938  7.155750  5.366812     0.068583    0.038999    0.096956  
      3.577875  8.944688  5.366812     0.068583    0.038999    0.096956  
      5.366812 10.733625  5.366812     0.068583    0.038999    0.096956  
      1.788938  5.366812  7.155750     0.068583    0.038999    0.096956  
      3.577875  7.155750  7.155750     0.068583    0.038999    0.096956  
      5.366812  8.944688  7.155750     0.068583    0.038999    0.096956  
      7.155750 10.733625  7.155750     0.068583    0.038999    0.096956  
      3.577875  5.366812  8.944688     0.068583    0.038999    0.096956  
      5.366812  7.155750  8.944688     0.068583    0.038999    0.096956  
      7.155750  8.944688  8.944688     0.068583    0.038999    0.096956  
      8.944688 10.733625  8.944688     0.068583    0.038999    0.096956  
      5.366812  5.366812 10.733625     0.068583    0.038999    0.096956  
      7.155750  7.155750 10.733625     0.068583    0.038999    0.096956  
      8.944688  8.944688 10.733625     0.068583    0.038999    0.096956  
     10.733625 10.733625 10.733625     0.068583    0.038999    0.096956  
 
 192 f/i=    0.000001 THz     0.000008 2PiTHz    0.000044 cm-1     0.000005 meV
             X         Y         Z           dx          dy          dz
      0.000000  0.000000  0.000000     0.062640   -0.108169   -0.000799  
      1.788938  1.788938  0.000000     0.062640   -0.108169   -0.000799  
      3.577875  3.577875  0.000000     0.062640   -0.108169   -0.000799  
      5.366812  5.366812  0.000000     0.062640   -0.108169   -0.000799  
      1.788938  0.000000  1.788938     0.062640   -0.108169   -0.000799  
      3.577875  1.788938  1.788938     0.062640   -0.108169   -0.000799  
      5.366812  3.577875  1.788938     0.062640   -0.108169   -0.000799  
      7.155750  5.366812  1.788938     0.062640   -0.108169   -0.000799  
      3.577875  0.000000  3.577875     0.062640   -0.108169   -0.000799  
      5.366812  1.788938  3.577875     0.062640   -0.108169   -0.000799  
      7.155750  3.577875  3.577875     0.062640   -0.108169   -0.000799  
      8.944688  5.366812  3.577875     0.062640   -0.108169   -0.000799  
      5.366812  0.000000  5.366812     0.062640   -0.108169   -0.000799  
      7.155750  1.788938  5.366812     0.062640   -0.108169   -0.000799  
      8.944688  3.577875  5.366812     0.062640   -0.108169   -0.000799  
     10.733625  5.366812  5.366812     0.062640   -0.108169   -0.000799  
      0.000000  1.788938  1.788938     0.062640   -0.108169   -0.000799  
      1.788938  3.577875  1.788938     0.062640   -0.108169   -0.000799  
      3.577875  5.366812  1.788938     0.062640   -0.108169   -0.000799  
      5.366812  7.155750  1.788938     0.062640   -0.108169   -0.000799  
      1.788938  1.788938  3.577875     0.062640   -0.108169   -0.000799  
      3.577875  3.577875  3.577875     0.062640   -0.108169   -0.000799  
      5.366812  5.366812  3.577875     0.062640   -0.108169   -0.000799  
      7.155750  7.155750  3.577875     0.062640   -0.108169   -0.000799  
      3.577875  1.788938  5.366812     0.062640   -0.108169   -0.000799  
      5.366812  3.577875  5.366812     0.062640   -0.108169   -0.000799  
      7.155750  5.366812  5.366812     0.062640   -0.108169   -0.000799  
      8.944688  7.155750  5.366812     0.062640   -0.108169   -0.000799  
      5.366812  1.788938  7.155750     0.062640   -0.108169   -0.000799  
      7.155750  3.577875  7.155750     0.062640   -0.108169   -0.000799  
      8.944688  5.366812  7.155750     0.062640   -0.108169   -0.000799  
     10.733625  7.155750  7.155750     0.062640   -0.108169   -0.000799  
      0.000000  3.577875  3.577875     0.062640   -0.108169   -0.000799  
      1.788938  5.366812  3.577875     0.062640   -0.108169   -0.000799  
      3.577875  7.155750  3.577875     0.062640   -0.108169   -0.000799  
      5.366812  8.944688  3.577875     0.062640   -0.108169   -0.000799  
      1.788938  3.577875  5.366812     0.062640   -0.108169   -0.000799  
      3.577875  5.366812  5.366812     0.062640   -0.108169   -0.000799  
      5.366812  7.155750  5.366812     0.062640   -0.108169   -0.000799  
      7.155750  8.944688  5.366812     0.062640   -0.108169   -0.000799  
      3.577875  3.577875  7.155750     0.062640   -0.108169   -0.000799  
      5.366812  5.366812  7.155750     0.062640   -0.108169   -0.000799  
      7.155750  7.155750  7.155750     0.062640   -0.108169   -0.000799  
      8.944688  8.944688  7.155750     0.062640   -0.108169   -0.000799  
      5.366812  3.577875  8.944688     0.062640   -0.108169   -0.000799  
      7.155750  5.366812  8.944688     0.062640   -0.108169   -0.000799  
      8.944688  7.155750  8.944688     0.062640   -0.108169   -0.000799  
     10.733625  8.944688  8.944688     0.062640   -0.108169   -0.000799  
      0.000000  5.366812  5.366812     0.062640   -0.108169   -0.000799  
      1.788938  7.155750  5.366812     0.062640   -0.108169   -0.000799  
      3.577875  8.944688  5.366812     0.062640   -0.108169   -0.000799  
      5.366812 10.733625  5.366812     0.062640   -0.108169   -0.000799  
      1.788938  5.366812  7.155750     0.062640   -0.108169   -0.000799  
      3.577875  7.155750  7.155750     0.062640   -0.108169   -0.000799  
      5.366812  8.944688  7.155750     0.062640   -0.108169   -0.000799  
      7.155750 10.733625  7.155750     0.062640   -0.108169   -0.000799  
      3.577875  5.366812  8.944688     0.062640   -0.108169   -0.000799  
      5.366812  7.155750  8.944688     0.062640   -0.108169   -0.000799  
      7.155750  8.944688  8.944688     0.062640   -0.108169   -0.000799  
      8.944688 10.733625  8.944688     0.062640   -0.108169   -0.000799  
      5.366812  5.366812 10.733625     0.062640   -0.108169   -0.000799  
      7.155750  7.155750 10.733625     0.062640   -0.108169   -0.000799  
      8.944688  8.944688 10.733625     0.062640   -0.108169   -0.000799  
     10.733625 10.733625 10.733625     0.062640   -0.108169   -0.000799  
 

 ELASTIC MODULI CONTR FROM IONIC RELAXATION (kBar)
 Direction    XX          YY          ZZ          XY          YZ          ZX
 --------------------------------------------------------------------------------
 XX           0.0000      0.0000      0.0000     -0.0000      0.0000      0.0000
 YY           0.0000      0.0000      0.0000     -0.0000     -0.0000      0.0000
 ZZ           0.0000     -0.0000      0.0000     -0.0000      0.0000     -0.0000
 XY          -0.0000     -0.0000     -0.0000     -0.0000      0.0000     -0.0000
 YZ           0.0000      0.0000      0.0000      0.0000      0.0000     -0.0000
 ZX           0.0000      0.0000     -0.0000     -0.0000     -0.0000      0.0000
 --------------------------------------------------------------------------------



--------------------------------------------------------------------------------------------------------


  LATTYP: Found a face centered cubic cell.
 ALAT       =    14.3115000000
  
  Lattice vectors:
  
 A1 = (   0.0000000000,   7.1557500000,   7.1557500000)
 A2 = (   7.1557500000,   0.0000000000,   7.1557500000)
 A3 = (   7.1557500000,   7.1557500000,   0.0000000000)


Analysis of symmetry for initial positions (statically):
=====================================================================
 Subroutine PRICEL returns following result:
 
  LATTYP: Found a face centered cubic cell.
 ALAT       =     3.5778750000
  
  Lattice vectors:
  
 A1 = (   0.0000000000,   1.7889375000,   1.7889375000)
 A2 = (   1.7889375000,   0.0000000000,   1.7889375000)
 A3 = (   1.7889375000,   1.7889375000,   0.0000000000)
 
  64 primitive cells build up your supercell.
 

 Routine SETGRP: Setting up the symmetry group for a 
 face centered cubic supercell.


 Subroutine GETGRP returns: Found 48 space group operations
 (whereof 48 operations were pure point group operations)
 out of a pool of 48 trial point group operations.


The static configuration has the point symmetry O_h .


Analysis of symmetry for dynamics (positions and initial velocities):
=====================================================================
 Subroutine PRICEL returns following result:
 
  LATTYP: Found a face centered cubic cell.
 ALAT       =     3.5778750000
  
  Lattice vectors:
  
 A1 = (   0.0000000000,   1.7889375000,   1.7889375000)
 A2 = (   1.7889375000,   0.0000000000,   1.7889375000)
 A3 = (   1.7889375000,   1.7889375000,   0.0000000000)
 
  64 primitive cells build up your supercell.
 

 Routine SETGRP: Setting up the symmetry group for a 
 face centered cubic supercell.


 Subroutine GETGRP returns: Found 48 space group operations
 (whereof 48 operations were pure point group operations)
 out of a pool of 48 trial point group operations.


The dynamic configuration has the point symmetry O_h .


Analysis of structural, dynamic, and magnetic symmetry:
=====================================================================
 Subroutine PRICEL returns following result:
 
  LATTYP: Found a face centered cubic cell.
 ALAT       =     3.5778750000
  
  Lattice vectors:
  
 A1 = (   0.0000000000,   1.7889375000,   1.7889375000)
 A2 = (   1.7889375000,   0.0000000000,   1.7889375000)
 A3 = (   1.7889375000,   1.7889375000,   0.0000000000)
 
  64 primitive cells build up your supercell.
 

 Routine SETGRP: Setting up the symmetry group for a 
 face centered cubic supercell.


 Subroutine GETGRP returns: Found 48 space group operations
 (whereof 48 operations were pure point group operations)
 out of a pool of 48 trial point group operations.


The magnetic configuration has the point symmetry O_h .


 Subroutine INISYM returns: Found 48 space group operations
 (whereof 48 operations are pure point group operations),
 and found    64 'primitive' translations

 
 KPOINTS: Zr 15x15x15                             

Automatic generation of k-mesh.
Space group operators:
 irot       det(A)        alpha          n_x          n_y          n_z        tau_x        tau_y        tau_z
    1     1.000000     0.000000     1.000000     0.000000     0.000000     0.000000     0.000000     0.000000
    2    -1.000000     0.000000     1.000000     0.000000     0.000000     0.000000     0.000000     0.000000
    3     1.000000   120.000000    -0.577350    -0.577350    -0.577350     0.000000     0.000000     0.000000
    4    -1.000000   120.000000    -0.577350    -0.577350    -0.577350     0.000000     0.000000     0.000000
    5     1.000000   120.000000     0.577350     0.577350     0.577350     0.000000     0.000000     0.000000
    6    -1.000000   120.000000     0.577350     0.577350     0.577350     0.000000     0.000000     0.000000
    7     1.000000    90.000000     0.000000     0.000000    -1.000000     0.000000     0.000000     0.000000
    8    -1.000000    90.000000     0.000000     0.000000    -1.000000     0.000000     0.000000     0.000000
    9     1.000000   180.000000     0.000000     0.707107     0.707107     0.000000     0.000000     0.000000
   10    -1.000000   180.000000     0.000000     0.707107     0.707107     0.000000     0.000000     0.000000
   11     1.000000    90.000000     0.000000     1.000000     0.000000     0.000000     0.000000     0.000000
   12    -1.000000    90.000000     0.000000     1.000000     0.000000     0.000000     0.000000     0.000000
   13     1.000000   180.000000     0.000000     0.000000     1.000000     0.000000     0.000000     0.000000
   14    -1.000000   180.000000     0.000000     0.000000     1.000000     0.000000     0.000000     0.000000
   15     1.000000   120.000000    -0.577350     0.577350     0.577350     0.000000     0.000000     0.000000
   16    -1.000000   120.000000    -0.577350     0.577350     0.577350     0.000000     0.000000     0.000000
   17     1.000000   120.000000    -0.577350     0.577350    -0.577350     0.000000     0.000000     0.000000
   18    -1.000000   120.000000    -0.577350     0.577350    -0.577350     0.000000     0.000000     0.000000
   19     1.000000    90.000000     0.000000     0.000000     1.000000     0.000000     0.000000     0.000000
   20    -1.000000    90.000000     0.000000     0.000000     1.000000     0.000000     0.000000     0.000000
   21     1.000000    90.000000    -1.000000     0.000000     0.000000     0.000000     0.000000     0.000000
   22    -1.000000    90.000000    -1.000000     0.000000     0.000000     0.000000     0.000000     0.000000
   23     1.000000   180.000000     0.707107     0.000000     0.707107     0.000000     0.000000     0.000000
   24    -1.000000   180.000000     0.707107     0.000000     0.707107     0.000000     0.000000     0.000000
   25     1.000000   120.000000     0.577350    -0.577350     0.577350     0.000000     0.000000     0.000000
   26    -1.000000   120.000000     0.577350    -0.577350     0.577350     0.000000     0.000000     0.000000
   27     1.000000   120.000000    -0.577350    -0.577350     0.577350     0.000000     0.000000     0.000000
   28    -1.000000   120.000000    -0.577350    -0.577350     0.577350     0.000000     0.000000     0.000000
   29     1.000000   180.000000     1.000000     0.000000     0.000000     0.000000     0.000000     0.000000
   30    -1.000000   180.000000     1.000000     0.000000     0.000000     0.000000     0.000000     0.000000
   31     1.000000    90.000000     0.000000    -1.000000     0.000000     0.000000     0.000000     0.000000
   32    -1.000000    90.000000     0.000000    -1.000000     0.000000     0.000000     0.000000     0.000000
   33     1.000000   180.000000     0.707107     0.707107     0.000000     0.000000     0.000000     0.000000
   34    -1.000000   180.000000     0.707107     0.707107     0.000000     0.000000     0.000000     0.000000
   35     1.000000    90.000000     1.000000     0.000000     0.000000     0.000000     0.000000     0.000000
   36    -1.000000    90.000000     1.000000     0.000000     0.000000     0.000000     0.000000     0.000000
   37     1.000000   120.000000     0.577350    -0.577350    -0.577350     0.000000     0.000000     0.000000
   38    -1.000000   120.000000     0.577350    -0.577350    -0.577350     0.000000     0.000000     0.000000
   39     1.000000   180.000000     0.000000     1.000000     0.000000     0.000000     0.000000     0.000000
   40    -1.000000   180.000000     0.000000     1.000000     0.000000     0.000000     0.000000     0.000000
   41     1.000000   120.000000     0.577350     0.577350    -0.577350     0.000000     0.000000     0.000000
   42    -1.000000   120.000000     0.577350     0.577350    -0.577350     0.000000     0.000000     0.000000
   43     1.000000   180.000000     0.000000    -0.707107     0.707107     0.000000     0.000000     0.000000
   44    -1.000000   180.000000     0.000000    -0.707107     0.707107     0.000000     0.000000     0.000000
   45     1.000000   180.000000     0.707107    -0.707107     0.000000     0.000000     0.000000     0.000000
   46    -1.000000   180.000000     0.707107    -0.707107     0.000000     0.000000     0.000000     0.000000
   47     1.000000   180.000000     0.707107     0.000000    -0.707107     0.000000     0.000000     0.000000
   48    -1.000000   180.000000     0.707107     0.000000    -0.707107     0.000000     0.000000     0.000000
 
 Subroutine IBZKPT returns following result:
 ===========================================
 
 Found     10 irreducible k-points:
 
 Following reciprocal coordinates:
            Coordinates               Weight
  0.000000  0.000000  0.000000      1.000000
  0.200000  0.000000  0.000000      8.000000
  0.400000  0.000000  0.000000      8.000000
  0.200000  0.200000  0.000000      6.000000
  0.400000  0.200000  0.000000     24.000000
 -0.400000  0.200000  0.000000     24.000000
 -0.200000  0.200000  0.000000     12.000000
  0.400000  0.400000  0.000000      6.000000
 -0.400000  0.400000  0.000000     12.000000
 -0.400000  0.400000  0.200000     24.000000
 
 Following cartesian coordinates:
            Coordinates               Weight
  0.000000  0.000000  0.000000      1.000000
 -0.013975  0.013975  0.013975      8.000000
 -0.027950  0.027950  0.027950      8.000000
  0.000000  0.000000  0.027950      6.000000
 -0.013975  0.013975  0.041924     24.000000
  0.041924 -0.041924 -0.013975     24.000000
  0.027950 -0.027950  0.000000     12.000000
  0.000000  0.000000  0.055899      6.000000
  0.055899 -0.055899  0.000000     12.000000
  0.069874 -0.041924 -0.013975     24.000000
 
 writing wavefunctions
     LOOP+:  cpu time14010.2151: real time14002.2282
    4ORBIT:  cpu time    0.0000: real time    0.0000

 total amount of memory used by VASP on root node   829918. kBytes
========================================================================

   base      :      30000. kBytes
   nonlr-proj:      48671. kBytes
   fftplans  :      18931. kBytes
   grid      :      59310. kBytes
   one-center:       1990. kBytes
   wavefun   :     671016. kBytes
 
  
  
 General timing and accounting informations for this job:
 ========================================================
  
                  Total CPU time used (sec):    33104.707
                            User time (sec):    32820.410
                          System time (sec):      284.296
                         Elapsed time (sec):    38561.504
  
                   Maximum memory used (kb):     2562380.
                   Average memory used (kb):           0.
  
                          Minor page faults:      1114914
                          Major page faults:            1
                 Voluntary context switches:         1756
