<?xml version="1.0" encoding="ISO-8859-1"?>
<modeling>
 <generator>
  <i name="program" type="string">vasp </i>
  <i name="version" type="string">5.4.1  </i>
  <i name="subversion" type="string">05Feb16 (build Oct 12 2016 17:31:35) complex                          parallel </i>
  <i name="platform" type="string">IFC91_ompi </i>
  <i name="date" type="string">2020 09 07 </i>
  <i name="time" type="string">22:42:42 </i>
 </generator>
 <incar>
  <i type="string" name="SYSTEM"> phonon of Zr bcc - omiga</i>
  <i type="string" name="PREC">a</i>
  <i type="int" name="ISPIN">     2</i>
  <i type="int" name="IBRION">     6</i>
  <i name="EDIFF">      0.00000100</i>
  <i type="int" name="NSW">     1</i>
  <v name="MAGMOM">      1.00000000      1.00000000      1.00000000      1.00000000      1.00000000      1.00000000      1.00000000      1.00000000      1.00000000      1.00000000      1.00000000      1.00000000      1.00000000      1.00000000      1.00000000      1.00000000      1.00000000      1.00000000      1.00000000      1.00000000
      1.00000000      1.00000000      1.00000000      1.00000000      1.00000000      1.00000000      1.00000000      1.00000000      1.00000000      1.00000000      1.00000000      1.00000000      1.00000000      1.00000000      1.00000000      1.00000000      1.00000000      1.00000000      1.00000000      1.00000000
      1.00000000      1.00000000      1.00000000      1.00000000      1.00000000      1.00000000      1.00000000      1.00000000      1.00000000      1.00000000      1.00000000      1.00000000      1.00000000      1.00000000      1.00000000      1.00000000      1.00000000      1.00000000      1.00000000      1.00000000
      1.00000000      1.00000000      1.00000000      1.00000000</v>
  <i type="string" name="LREAL">Auto</i>
  <i type="int" name="ISMEAR">     1</i>
  <i type="int" name="NWRITE">     0</i>
  <v type="int" name="KPOINT_BSE">    -1     0     0     0</v>
 </incar>
 <kpoints>
  <generation param="Gamma">
   <v type="int" name="divisions">       5        5        5 </v>
   <v name="usershift">      0.00000000       0.00000000       0.00000000 </v>
   <v name="genvec1">      0.20000000       0.00000000       0.00000000 </v>
   <v name="genvec2">      0.00000000       0.20000000       0.00000000 </v>
   <v name="genvec3">      0.00000000       0.00000000       0.20000000 </v>
   <v name="shift">      0.00000000       0.00000000       0.00000000 </v>
  </generation>
  <varray name="kpointlist" >
   <v>       0.00000000       0.00000000       0.00000000 </v>
   <v>       0.20000000       0.00000000       0.00000000 </v>
   <v>       0.40000000       0.00000000       0.00000000 </v>
   <v>       0.20000000       0.20000000       0.00000000 </v>
   <v>       0.40000000       0.20000000       0.00000000 </v>
   <v>      -0.40000000       0.20000000       0.00000000 </v>
   <v>      -0.20000000       0.20000000       0.00000000 </v>
   <v>       0.40000000       0.40000000       0.00000000 </v>
   <v>      -0.40000000       0.40000000       0.00000000 </v>
   <v>      -0.40000000       0.40000000       0.20000000 </v>
  </varray>
  <varray name="weights" >
   <v>       0.00800000 </v>
   <v>       0.06400000 </v>
   <v>       0.06400000 </v>
   <v>       0.04800000 </v>
   <v>       0.19200000 </v>
   <v>       0.19200000 </v>
   <v>       0.09600000 </v>
   <v>       0.04800000 </v>
   <v>       0.09600000 </v>
   <v>       0.19200000 </v>
  </varray>
 </kpoints>
 <parameters>
  <separator name="general" >
   <i type="string" name="SYSTEM">phonon of Zr bcc - omiga</i>
   <i type="logical" name="LCOMPAT"> F  </i>
  </separator>
  <separator name="electronic" >
   <i type="string" name="PREC">a</i>
   <i name="ENMAX">    367.94500000</i>
   <i name="ENAUG">    703.44300000</i>
   <i name="EDIFF">      0.00000100</i>
   <i type="int" name="IALGO">    38</i>
   <i type="int" name="IWAVPR">    11</i>
   <i type="int" name="NBANDS">   648</i>
   <i name="NELECT">   1024.00000000</i>
   <i type="int" name="TURBO">     0</i>
   <i type="int" name="IRESTART">     0</i>
   <i type="int" name="NREBOOT">     0</i>
   <i type="int" name="NMIN">     0</i>
   <i name="EREF">      0.00000000</i>
   <separator name="electronic smearing" >
    <i type="int" name="ISMEAR">     1</i>
    <i name="SIGMA">      0.20000000</i>
    <i name="KSPACING">      0.50000000</i>
    <i type="logical" name="KGAMMA"> T  </i>
   </separator>
   <separator name="electronic projectors" >
    <i type="logical" name="LREAL"> T  </i>
    <v name="ROPT">     -0.00025000</v>
    <i type="int" name="LMAXPAW">  -100</i>
    <i type="int" name="LMAXMIX">     2</i>
    <i type="logical" name="NLSPLINE"> F  </i>
   </separator>
   <separator name="electronic startup" >
    <i type="int" name="ISTART">     0</i>
    <i type="int" name="ICHARG">     2</i>
    <i type="int" name="INIWAV">     1</i>
   </separator>
   <separator name="electronic spin" >
    <i type="int" name="ISPIN">     2</i>
    <i type="logical" name="LNONCOLLINEAR"> F  </i>
    <v name="MAGMOM">      1.00000000      1.00000000      1.00000000      1.00000000      1.00000000      1.00000000      1.00000000      1.00000000      1.00000000      1.00000000      1.00000000      1.00000000      1.00000000      1.00000000      1.00000000      1.00000000      1.00000000      1.00000000      1.00000000      1.00000000
      1.00000000      1.00000000      1.00000000      1.00000000      1.00000000      1.00000000      1.00000000      1.00000000      1.00000000      1.00000000      1.00000000      1.00000000      1.00000000      1.00000000      1.00000000      1.00000000      1.00000000      1.00000000      1.00000000      1.00000000
      1.00000000      1.00000000      1.00000000      1.00000000      1.00000000      1.00000000      1.00000000      1.00000000      1.00000000      1.00000000      1.00000000      1.00000000      1.00000000      1.00000000      1.00000000      1.00000000      1.00000000      1.00000000      1.00000000      1.00000000
      1.00000000      1.00000000      1.00000000      1.00000000</v>
    <i name="NUPDOWN">     -1.00000000</i>
    <i type="logical" name="LSORBIT"> F  </i>
    <v name="SAXIS">      0.00000000      0.00000000      1.00000000</v>
    <i type="logical" name="LSPIRAL"> F  </i>
    <v name="QSPIRAL">      0.00000000      0.00000000      0.00000000</v>
    <i type="logical" name="LZEROZ"> F  </i>
   </separator>
   <separator name="electronic exchange-correlation" >
    <i type="logical" name="LASPH"> F  </i>
    <i type="logical" name="LMETAGGA"> F  </i>
   </separator>
   <separator name="electronic convergence" >
    <i type="int" name="NELM">    60</i>
    <i type="int" name="NELMDL">     0</i>
    <i type="int" name="NELMIN">     2</i>
    <i name="ENINI">    367.94500000</i>
    <separator name="electronic convergence detail" >
     <i type="logical" name="LDIAG"> T  </i>
     <i type="logical" name="LSUBROT"> F  </i>
     <i name="WEIMIN">      0.00100000</i>
     <i name="EBREAK">      0.00000000</i>
     <i name="DEPER">      0.30000000</i>
     <i type="int" name="NRMM">     4</i>
     <i name="TIME">      0.40000000</i>
    </separator>
   </separator>
   <separator name="electronic mixer" >
    <i name="AMIX">      0.40000000</i>
    <i name="BMIX">      1.00000000</i>
    <i name="AMIN">      0.10000000</i>
    <i name="AMIX_MAG">      1.60000000</i>
    <i name="BMIX_MAG">      1.00000000</i>
    <separator name="electronic mixer details" >
     <i type="int" name="IMIX">     4</i>
     <i type="logical" name="MIXFIRST"> F  </i>
     <i type="int" name="MAXMIX">   -45</i>
     <i name="WC">    100.00000000</i>
     <i type="int" name="INIMIX">     1</i>
     <i type="int" name="MIXPRE">     1</i>
     <i type="int" name="MREMOVE">     5</i>
    </separator>
   </separator>
   <separator name="electronic dipolcorrection" >
    <i type="logical" name="LDIPOL"> F  </i>
    <i type="logical" name="LMONO"> F  </i>
    <i type="int" name="IDIPOL">     0</i>
    <i name="EPSILON">      1.00000000</i>
    <v name="DIPOL">   -100.00000000   -100.00000000   -100.00000000</v>
    <i name="EFIELD">      0.00000000</i>
   </separator>
  </separator>
  <separator name="grids" >
   <i type="int" name="NGX">    64</i>
   <i type="int" name="NGY">    64</i>
   <i type="int" name="NGZ">    64</i>
   <i type="int" name="NGXF">   128</i>
   <i type="int" name="NGYF">   128</i>
   <i type="int" name="NGZF">   128</i>
   <i type="logical" name="ADDGRID"> F  </i>
  </separator>
  <separator name="ionic" >
   <i type="int" name="NSW">   805</i>
   <i type="int" name="IBRION">     6</i>
   <i type="int" name="ISIF">     2</i>
   <i name="PSTRESS">      0.00000000</i>
   <i name="EDIFFG">      0.00001000</i>
   <i type="int" name="NFREE">     2</i>
   <i name="POTIM">      0.50000000</i>
   <i name="SMASS">     -3.00000000</i>
   <i name="SCALEE">      1.00000000</i>
  </separator>
  <separator name="ionic md" >
   <i name="TEBEG">      0.00010000</i>
   <i name="TEEND">      0.00010000</i>
   <i type="int" name="NBLOCK">     1</i>
   <i type="int" name="KBLOCK">     1</i>
   <i type="int" name="NPACO">   256</i>
   <i name="APACO">     16.00000000</i>
  </separator>
  <separator name="symmetry" >
   <i type="int" name="ISYM">     2</i>
   <i name="SYMPREC">      0.00001000</i>
  </separator>
  <separator name="dos" >
   <i type="logical" name="LORBIT"> F  </i>
   <v name="RWIGS">     -1.00000000</v>
   <i type="int" name="NEDOS">   301</i>
   <i name="EMIN">     10.00000000</i>
   <i name="EMAX">    -10.00000000</i>
   <i name="EFERMI">      0.00000000</i>
  </separator>
  <separator name="writing" >
   <i type="int" name="NWRITE">     0</i>
   <i type="logical" name="LWAVE"> T  </i>
   <i type="logical" name="LCHARG"> T  </i>
   <i type="logical" name="LPARD"> F  </i>
   <i type="logical" name="LVTOT"> F  </i>
   <i type="logical" name="LVHAR"> F  </i>
   <i type="logical" name="LELF"> F  </i>
   <i type="logical" name="LOPTICS"> F  </i>
   <v name="STM">      0.00000000      0.00000000      0.00000000      0.00000000      0.00000000      0.00000000      0.00000000</v>
  </separator>
  <separator name="performance" >
   <i type="int" name="NPAR">     4</i>
   <i type="int" name="NSIM">     4</i>
   <i type="int" name="NBLK">    -1</i>
   <i type="logical" name="LPLANE"> T  </i>
   <i type="logical" name="LSCALAPACK"> T  </i>
   <i type="logical" name="LSCAAWARE"> F  </i>
   <i type="logical" name="LSCALU"> F  </i>
   <i type="logical" name="LASYNC"> F  </i>
   <i type="logical" name="LORBITALREAL"> F  </i>
  </separator>
  <separator name="miscellaneous" >
   <i type="int" name="IDIOT">     3</i>
   <i type="logical" name="LMUSIC"> F  </i>
   <v name="POMASS">     58.69000000</v>
   <v name="DARWINR">      0.00000000</v>
   <v name="DARWINV">      1.00000000</v>
   <i type="logical" name="LCORR"> T  </i>
  </separator>
  <i type="logical" name="GGA_COMPAT"> T  </i>
  <i type="logical" name="LBERRY"> F  </i>
  <i type="int" name="ICORELEVEL">     0</i>
  <i type="logical" name="LDAU"> F  </i>
  <i type="int" name="I_CONSTRAINED_M">     0</i>
  <separator name="electronic exchange-correlation" >
   <i type="string" name="GGA">--</i>
   <i type="int" name="VOSKOWN">     0</i>
   <i type="logical" name="LHFCALC"> F  </i>
   <i type="string" name="PRECFOCK"></i>
   <i type="logical" name="LSYMGRAD"> F  </i>
   <i type="logical" name="LHFONE"> F  </i>
   <i type="logical" name="LRHFCALC"> F  </i>
   <i type="logical" name="LTHOMAS"> F  </i>
   <i type="logical" name="LMODELHF"> F  </i>
   <i name="ENCUT4O">     -1.00000000</i>
   <i type="int" name="EXXOEP">     0</i>
   <i type="int" name="FOURORBIT">     0</i>
   <i name="AEXX">      0.00000000</i>
   <i name="HFALPHA">      0.00000000</i>
   <i name="MCALPHA">      0.00000000</i>
   <i name="ALDAX">      1.00000000</i>
   <i name="AGGAX">      1.00000000</i>
   <i name="ALDAC">      1.00000000</i>
   <i name="AGGAC">      1.00000000</i>
   <i type="int" name="NKREDX">     1</i>
   <i type="int" name="NKREDY">     1</i>
   <i type="int" name="NKREDZ">     1</i>
   <i type="logical" name="SHIFTRED"> F  </i>
   <i type="logical" name="ODDONLY"> F  </i>
   <i type="logical" name="EVENONLY"> F  </i>
   <i type="int" name="LMAXFOCK">     0</i>
   <i type="int" name="NMAXFOCKAE">     0</i>
   <i type="logical" name="LFOCKAEDFT"> F  </i>
   <i name="HFSCREEN">      0.00000000</i>
   <i name="HFSCREENC">      0.00000000</i>
   <i type="int" name="NBANDSGWLOW">     0</i>
  </separator>
  <separator name="vdW DFT" >
   <i type="logical" name="LUSE_VDW"> F  </i>
   <i name="Zab_VDW">     -0.84910000</i>
   <i name="PARAM1">      0.12340000</i>
   <i name="PARAM2">      1.00000000</i>
   <i name="PARAM3">      0.00000000</i>
  </separator>
  <separator name="model GW" >
   <i type="int" name="MODEL_GW">     0</i>
   <i name="MODEL_EPS0">      6.87015839</i>
   <i name="MODEL_ALPHA">      1.00000000</i>
  </separator>
  <separator name="linear response parameters" >
   <i type="logical" name="LEPSILON"> F  </i>
   <i type="logical" name="LRPA"> F  </i>
   <i type="logical" name="LNABLA"> F  </i>
   <i type="logical" name="LVEL"> F  </i>
   <i type="int" name="KINTER">     0</i>
   <i name="CSHIFT">      0.10000000</i>
   <i name="OMEGAMAX">     -1.00000000</i>
   <i name="DEG_THRESHOLD">      0.00200000</i>
  </separator>
  <separator name="orbital magnetization" >
   <i type="logical" name="NUCIND"> F  </i>
   <v name="MAGPOS">      0.00000000      0.00000000      0.00000000</v>
   <i type="logical" name="LNICSALL"> T  </i>
   <i type="logical" name="ORBITALMAG"> F  </i>
   <i type="logical" name="LMAGBLOCH"> F  </i>
   <i type="logical" name="LCHIMAG"> F  </i>
   <i type="logical" name="LGAUGE"> T  </i>
   <i type="int" name="MAGATOM">     0</i>
   <v name="MAGDIPOL">      0.00000000      0.00000000      0.00000000</v>
   <v name="AVECCONST">      0.00000000      0.00000000      0.00000000</v>
  </separator>
  <separator name="response functions" >
   <i type="logical" name="LADDER"> F  </i>
   <i type="logical" name="LFXC"> F  </i>
   <i type="logical" name="LHARTREE"> T  </i>
   <i type="int" name="IBSE">     0</i>
   <v type="int" name="KPOINT">    -1     0     0     0</v>
   <i type="logical" name="LTCTE"> F  </i>
   <i type="logical" name="LTETE"> F  </i>
   <i type="logical" name="LTRIPLET"> F  </i>
   <i type="logical" name="LFXCEPS"> F  </i>
   <i type="logical" name="LFXHEG"> F  </i>
   <i type="int" name="NATURALO">     0</i>
   <i type="logical" name="L2ORDER"> F  </i>
   <i type="logical" name="LUSEW"> F  </i>
   <i name="ENCUTGW">     -2.00000000</i>
   <i name="ENCUTGWSOFT">     -2.00000000</i>
   <i name="ENCUTLF">     -1.00000000</i>
   <i type="int" name="LMAXMP2">    -1</i>
   <i name="SCISSOR">      0.00000000</i>
   <i type="int" name="NOMEGA">     0</i>
   <i type="int" name="NOMEGAR">     0</i>
   <i type="int" name="NBANDSGW">    -1</i>
   <i type="int" name="NBANDSO">    -1</i>
   <i type="int" name="NBANDSV">    -1</i>
   <i type="int" name="NELM">     1</i>
   <i type="int" name="NELMHF">     1</i>
   <i type="int" name="DIM">     3</i>
   <i type="int" name="ANTIRES">     0</i>
   <i name="OMEGAMAX">    -30.00000000</i>
   <i name="OMEGAMIN">    -30.00000000</i>
   <i name="OMEGATL">   -200.00000000</i>
   <i type="int" name="OMEGAGRID">     0</i>
   <i name="CSHIFT">     -0.10000000</i>
   <i type="logical" name="SELFENERGY"> F  </i>
   <i type="logical" name="LSPECTRAL"> F  </i>
   <i type="logical" name="LSPECTRALGW"> F  </i>
   <i type="logical" name="LSINGLES"> F  </i>
   <i type="logical" name="LFERMIGW"> F  </i>
   <i type="logical" name="ODDONLYGW"> F  </i>
   <i type="logical" name="EVENONLYGW"> F  </i>
   <i type="int" name="NKREDLFX">     1</i>
   <i type="int" name="NKREDLFY">     1</i>
   <i type="int" name="NKREDLFZ">     1</i>
   <i type="int" name="MAXMEM">  1800</i>
   <i type="int" name="TELESCOPE">     0</i>
   <i type="int" name="TAUPAR">     1</i>
   <i type="int" name="OMEGAPAR">    -1</i>
   <i name="LAMBDA">      1.00000000</i>
  </separator>
  <separator name="External order field" >
   <i name="OFIELD_KAPPA">      0.00000000</i>
   <v name="OFIELD_K">      0.00000000      0.00000000      0.00000000</v>
   <i name="OFIELD_Q6_NEAR">      0.00000000</i>
   <i name="OFIELD_Q6_FAR">      0.00000000</i>
   <i name="OFIELD_A">      0.00000000</i>
  </separator>
 </parameters>
 <atominfo>
  <atoms>      64 </atoms>
  <types>       1 </types>
  <array name="atoms" >
   <dimension dim="1">ion</dimension>
   <field type="string">element</field>
   <field type="int">atomtype</field>
   <set>
    <rc><c>Ni</c><c>   1</c></rc>
    <rc><c>Ni</c><c>   1</c></rc>
    <rc><c>Ni</c><c>   1</c></rc>
    <rc><c>Ni</c><c>   1</c></rc>
    <rc><c>Ni</c><c>   1</c></rc>
    <rc><c>Ni</c><c>   1</c></rc>
    <rc><c>Ni</c><c>   1</c></rc>
    <rc><c>Ni</c><c>   1</c></rc>
    <rc><c>Ni</c><c>   1</c></rc>
    <rc><c>Ni</c><c>   1</c></rc>
    <rc><c>Ni</c><c>   1</c></rc>
    <rc><c>Ni</c><c>   1</c></rc>
    <rc><c>Ni</c><c>   1</c></rc>
    <rc><c>Ni</c><c>   1</c></rc>
    <rc><c>Ni</c><c>   1</c></rc>
    <rc><c>Ni</c><c>   1</c></rc>
    <rc><c>Ni</c><c>   1</c></rc>
    <rc><c>Ni</c><c>   1</c></rc>
    <rc><c>Ni</c><c>   1</c></rc>
    <rc><c>Ni</c><c>   1</c></rc>
    <rc><c>Ni</c><c>   1</c></rc>
    <rc><c>Ni</c><c>   1</c></rc>
    <rc><c>Ni</c><c>   1</c></rc>
    <rc><c>Ni</c><c>   1</c></rc>
    <rc><c>Ni</c><c>   1</c></rc>
    <rc><c>Ni</c><c>   1</c></rc>
    <rc><c>Ni</c><c>   1</c></rc>
    <rc><c>Ni</c><c>   1</c></rc>
    <rc><c>Ni</c><c>   1</c></rc>
    <rc><c>Ni</c><c>   1</c></rc>
    <rc><c>Ni</c><c>   1</c></rc>
    <rc><c>Ni</c><c>   1</c></rc>
    <rc><c>Ni</c><c>   1</c></rc>
    <rc><c>Ni</c><c>   1</c></rc>
    <rc><c>Ni</c><c>   1</c></rc>
    <rc><c>Ni</c><c>   1</c></rc>
    <rc><c>Ni</c><c>   1</c></rc>
    <rc><c>Ni</c><c>   1</c></rc>
    <rc><c>Ni</c><c>   1</c></rc>
    <rc><c>Ni</c><c>   1</c></rc>
    <rc><c>Ni</c><c>   1</c></rc>
    <rc><c>Ni</c><c>   1</c></rc>
    <rc><c>Ni</c><c>   1</c></rc>
    <rc><c>Ni</c><c>   1</c></rc>
    <rc><c>Ni</c><c>   1</c></rc>
    <rc><c>Ni</c><c>   1</c></rc>
    <rc><c>Ni</c><c>   1</c></rc>
    <rc><c>Ni</c><c>   1</c></rc>
    <rc><c>Ni</c><c>   1</c></rc>
    <rc><c>Ni</c><c>   1</c></rc>
    <rc><c>Ni</c><c>   1</c></rc>
    <rc><c>Ni</c><c>   1</c></rc>
    <rc><c>Ni</c><c>   1</c></rc>
    <rc><c>Ni</c><c>   1</c></rc>
    <rc><c>Ni</c><c>   1</c></rc>
    <rc><c>Ni</c><c>   1</c></rc>
    <rc><c>Ni</c><c>   1</c></rc>
    <rc><c>Ni</c><c>   1</c></rc>
    <rc><c>Ni</c><c>   1</c></rc>
    <rc><c>Ni</c><c>   1</c></rc>
    <rc><c>Ni</c><c>   1</c></rc>
    <rc><c>Ni</c><c>   1</c></rc>
    <rc><c>Ni</c><c>   1</c></rc>
    <rc><c>Ni</c><c>   1</c></rc>
   </set>
  </array>
  <array name="atomtypes" >
   <dimension dim="1">type</dimension>
   <field type="int">atomspertype</field>
   <field type="string">element</field>
   <field>mass</field>
   <field>valence</field>
   <field type="string">pseudopotential</field>
   <set>
    <rc><c>  64</c><c>Ni</c><c>     58.69000000</c><c>     16.00000000</c><c> PAW_PBE Ni_pv 06Sep2000                </c></rc>
   </set>
  </array>
 </atominfo>
 <structure name="initialpos" >
  <crystal>
   <varray name="basis" >
    <v>       0.00000000       7.15575000       7.15575000 </v>
    <v>       7.15575000       0.00000000       7.15575000 </v>
    <v>       7.15575000       7.15575000       0.00000000 </v>
   </varray>
   <i name="volume">    732.81689501 </i>
   <varray name="rec_basis" >
    <v>      -0.06987388       0.06987388       0.06987388 </v>
    <v>       0.06987388      -0.06987388       0.06987388 </v>
    <v>       0.06987388       0.06987388      -0.06987388 </v>
   </varray>
  </crystal>
  <varray name="positions" >
   <v>       0.00000000       0.00000000       0.00000000 </v>
   <v>       0.00000000       0.00000000       0.25000000 </v>
   <v>       0.00000000       0.00000000       0.50000000 </v>
   <v>       0.00000000       0.00000000       0.75000000 </v>
   <v>       0.00000000       0.25000000       0.00000000 </v>
   <v>       0.00000000       0.25000000       0.25000000 </v>
   <v>       0.00000000       0.25000000       0.50000000 </v>
   <v>       0.00000000       0.25000000       0.75000000 </v>
   <v>       0.00000000       0.50000000       0.00000000 </v>
   <v>       0.00000000       0.50000000       0.25000000 </v>
   <v>       0.00000000       0.50000000       0.50000000 </v>
   <v>       0.00000000       0.50000000       0.75000000 </v>
   <v>       0.00000000       0.75000000       0.00000000 </v>
   <v>       0.00000000       0.75000000       0.25000000 </v>
   <v>       0.00000000       0.75000000       0.50000000 </v>
   <v>       0.00000000       0.75000000       0.75000000 </v>
   <v>       0.25000000       0.00000000       0.00000000 </v>
   <v>       0.25000000       0.00000000       0.25000000 </v>
   <v>       0.25000000       0.00000000       0.50000000 </v>
   <v>       0.25000000       0.00000000       0.75000000 </v>
   <v>       0.25000000       0.25000000       0.00000000 </v>
   <v>       0.25000000       0.25000000       0.25000000 </v>
   <v>       0.25000000       0.25000000       0.50000000 </v>
   <v>       0.25000000       0.25000000       0.75000000 </v>
   <v>       0.25000000       0.50000000       0.00000000 </v>
   <v>       0.25000000       0.50000000       0.25000000 </v>
   <v>       0.25000000       0.50000000       0.50000000 </v>
   <v>       0.25000000       0.50000000       0.75000000 </v>
   <v>       0.25000000       0.75000000       0.00000000 </v>
   <v>       0.25000000       0.75000000       0.25000000 </v>
   <v>       0.25000000       0.75000000       0.50000000 </v>
   <v>       0.25000000       0.75000000       0.75000000 </v>
   <v>       0.50000000       0.00000000       0.00000000 </v>
   <v>       0.50000000       0.00000000       0.25000000 </v>
   <v>       0.50000000       0.00000000       0.50000000 </v>
   <v>       0.50000000       0.00000000       0.75000000 </v>
   <v>       0.50000000       0.25000000       0.00000000 </v>
   <v>       0.50000000       0.25000000       0.25000000 </v>
   <v>       0.50000000       0.25000000       0.50000000 </v>
   <v>       0.50000000       0.25000000       0.75000000 </v>
   <v>       0.50000000       0.50000000       0.00000000 </v>
   <v>       0.50000000       0.50000000       0.25000000 </v>
   <v>       0.50000000       0.50000000       0.50000000 </v>
   <v>       0.50000000       0.50000000       0.75000000 </v>
   <v>       0.50000000       0.75000000       0.00000000 </v>
   <v>       0.50000000       0.75000000       0.25000000 </v>
   <v>       0.50000000       0.75000000       0.50000000 </v>
   <v>       0.50000000       0.75000000       0.75000000 </v>
   <v>       0.75000000       0.00000000       0.00000000 </v>
   <v>       0.75000000       0.00000000       0.25000000 </v>
   <v>       0.75000000       0.00000000       0.50000000 </v>
   <v>       0.75000000       0.00000000       0.75000000 </v>
   <v>       0.75000000       0.25000000       0.00000000 </v>
   <v>       0.75000000       0.25000000       0.25000000 </v>
   <v>       0.75000000       0.25000000       0.50000000 </v>
   <v>       0.75000000       0.25000000       0.75000000 </v>
   <v>       0.75000000       0.50000000       0.00000000 </v>
   <v>       0.75000000       0.50000000       0.25000000 </v>
   <v>       0.75000000       0.50000000       0.50000000 </v>
   <v>       0.75000000       0.50000000       0.75000000 </v>
   <v>       0.75000000       0.75000000       0.00000000 </v>
   <v>       0.75000000       0.75000000       0.25000000 </v>
   <v>       0.75000000       0.75000000       0.50000000 </v>
   <v>       0.75000000       0.75000000       0.75000000 </v>
  </varray>
 </structure>
 <calculation>
  <scstep>
   <time name="dav">  426.10  425.77</time>
   <time name="total">  426.90  426.56</time>
   <energy>
    <i name="alphaZ">   9415.99145534 </i>
    <i name="ewald">-151163.59208212 </i>
    <i name="hartreedc"> -63206.27708491 </i>
    <i name="XCdc">   5707.96949342 </i>
    <i name="pawpsdc"> 172361.15642774 </i>
    <i name="pawaedc">-181272.45834873 </i>
    <i name="eentropy">     -0.00566528 </i>
    <i name="bandstr">  -2048.26444898 </i>
    <i name="atom"> 224013.29143063 </i>
    <i name="e_fr_energy">  13807.81117712 </i>
    <i name="e_wo_entrp">  13807.81684240 </i>
    <i name="e_0_energy">  13807.81306554 </i>
   </energy>
  </scstep>
  <scstep>
   <time name="dav">  383.20  382.90</time>
   <time name="total">  383.21  382.91</time>
   <energy>
    <i name="e_fr_energy">    781.70572234 </i>
    <i name="e_wo_entrp">    781.70532766 </i>
    <i name="e_0_energy">    781.70559078 </i>
   </energy>
  </scstep>
  <scstep>
   <time name="dav">  401.02  400.72</time>
   <time name="total">  401.03  400.73</time>
   <energy>
    <i name="e_fr_energy">   -370.81080825 </i>
    <i name="e_wo_entrp">   -370.82851804 </i>
    <i name="e_0_energy">   -370.81671151 </i>
   </energy>
  </scstep>
  <scstep>
   <time name="dav">  403.22  402.90</time>
   <time name="total">  403.23  402.91</time>
   <energy>
    <i name="e_fr_energy">   -429.71671676 </i>
    <i name="e_wo_entrp">   -429.80802515 </i>
    <i name="e_0_energy">   -429.74715289 </i>
   </energy>
  </scstep>
  <scstep>
   <time name="dav">  382.01 5853.33</time>
   <time name="total">  394.75 5866.07</time>
   <energy>
    <i name="e_fr_energy">   -430.58974516 </i>
    <i name="e_wo_entrp">   -430.68177643 </i>
    <i name="e_0_energy">   -430.62042225 </i>
   </energy>
  </scstep>
  <scstep>
   <time name="dav">  361.52  361.23</time>
   <time name="total">  374.40  374.09</time>
   <energy>
    <i name="e_fr_energy">   -398.90024565 </i>
    <i name="e_wo_entrp">   -398.57978611 </i>
    <i name="e_0_energy">   -398.79342580 </i>
   </energy>
  </scstep>
  <scstep>
   <time name="dav">  360.17  359.88</time>
   <time name="total">  373.35  373.05</time>
   <energy>
    <i name="e_fr_energy">   -367.47101489 </i>
    <i name="e_wo_entrp">   -367.30918352 </i>
    <i name="e_0_energy">   -367.41707110 </i>
   </energy>
  </scstep>
  <scstep>
   <time name="dav">  356.92  356.63</time>
   <time name="total">  370.18  369.88</time>
   <energy>
    <i name="e_fr_energy">   -367.55043519 </i>
    <i name="e_wo_entrp">   -367.40751426 </i>
    <i name="e_0_energy">   -367.50279488 </i>
   </energy>
  </scstep>
  <scstep>
   <time name="dav">  365.57  365.28</time>
   <time name="total">  378.72  378.41</time>
   <energy>
    <i name="e_fr_energy">   -367.52925265 </i>
    <i name="e_wo_entrp">   -367.38583334 </i>
    <i name="e_0_energy">   -367.48144621 </i>
   </energy>
  </scstep>
  <scstep>
   <time name="dav">  367.63  367.33</time>
   <time name="total">  380.76  380.45</time>
   <energy>
    <i name="e_fr_energy">   -367.53167705 </i>
    <i name="e_wo_entrp">   -367.38806220 </i>
    <i name="e_0_energy">   -367.48380543 </i>
   </energy>
  </scstep>
  <scstep>
   <time name="dav">  360.10  359.80</time>
   <time name="total">  373.05  372.75</time>
   <energy>
    <i name="e_fr_energy">   -367.53448444 </i>
    <i name="e_wo_entrp">   -367.39093973 </i>
    <i name="e_0_energy">   -367.48663620 </i>
   </energy>
  </scstep>
  <scstep>
   <time name="dav">  384.17  383.86</time>
   <time name="total">  397.60  397.27</time>
   <energy>
    <i name="e_fr_energy">   -367.53463629 </i>
    <i name="e_wo_entrp">   -367.39059217 </i>
    <i name="e_0_energy">   -367.48662158 </i>
   </energy>
  </scstep>
  <scstep>
   <time name="dav">  367.61  367.31</time>
   <time name="total">  380.84  380.53</time>
   <energy>
    <i name="e_fr_energy">   -367.53466315 </i>
    <i name="e_wo_entrp">   -367.39061092 </i>
    <i name="e_0_energy">   -367.48664574 </i>
   </energy>
  </scstep>
  <scstep>
   <time name="dav">  316.29  316.04</time>
   <time name="total">  329.72  329.45</time>
   <energy>
    <i name="e_fr_energy">   -367.53464514 </i>
    <i name="e_wo_entrp">   -367.39061929 </i>
    <i name="e_0_energy">   -367.48663653 </i>
   </energy>
  </scstep>
  <scstep>
   <time name="dav">  233.34  233.15</time>
   <time name="total">  246.81  246.61</time>
   <energy>
    <i name="e_fr_energy">   -367.53463373 </i>
    <i name="e_wo_entrp">   -367.39062877 </i>
    <i name="e_0_energy">   -367.48663207 </i>
   </energy>
  </scstep>
  <scstep>
   <time name="dav">  230.32  230.13</time>
   <time name="total">  231.05  230.86</time>
   <energy>
    <i name="alphaZ">   9415.99145534 </i>
    <i name="ewald">-151163.59208212 </i>
    <i name="hartreedc"> -60874.59427574 </i>
    <i name="XCdc">   5619.67659297 </i>
    <i name="pawpsdc"> 171634.65541525 </i>
    <i name="pawaedc">-180673.56283460 </i>
    <i name="eentropy">     -0.14400111 </i>
    <i name="bandstr"> -18339.25633427 </i>
    <i name="atom"> 224013.29143063 </i>
    <i name="e_fr_energy">   -367.53463365 </i>
    <i name="e_wo_entrp">   -367.39063255 </i>
    <i name="e_0_energy">   -367.48663328 </i>
   </energy>
  </scstep>
  <structure>
   <crystal>
    <varray name="basis" >
     <v>       0.00000000       7.15575000       7.15575000 </v>
     <v>       7.15575000       0.00000000       7.15575000 </v>
     <v>       7.15575000       7.15575000       0.00000000 </v>
    </varray>
    <i name="volume">    732.81689501 </i>
    <varray name="rec_basis" >
     <v>      -0.06987388       0.06987388       0.06987388 </v>
     <v>       0.06987388      -0.06987388       0.06987388 </v>
     <v>       0.06987388       0.06987388      -0.06987388 </v>
    </varray>
   </crystal>
   <varray name="positions" >
    <v>       0.00000000       0.00000000       0.00000000 </v>
    <v>       0.00000000       0.00000000       0.25000000 </v>
    <v>       0.00000000       0.00000000       0.50000000 </v>
    <v>       0.00000000       0.00000000       0.75000000 </v>
    <v>       0.00000000       0.25000000       0.00000000 </v>
    <v>       0.00000000       0.25000000       0.25000000 </v>
    <v>       0.00000000       0.25000000       0.50000000 </v>
    <v>       0.00000000       0.25000000       0.75000000 </v>
    <v>       0.00000000       0.50000000       0.00000000 </v>
    <v>       0.00000000       0.50000000       0.25000000 </v>
    <v>       0.00000000       0.50000000       0.50000000 </v>
    <v>       0.00000000       0.50000000       0.75000000 </v>
    <v>       0.00000000       0.75000000       0.00000000 </v>
    <v>       0.00000000       0.75000000       0.25000000 </v>
    <v>       0.00000000       0.75000000       0.50000000 </v>
    <v>       0.00000000       0.75000000       0.75000000 </v>
    <v>       0.25000000       0.00000000       0.00000000 </v>
    <v>       0.25000000       0.00000000       0.25000000 </v>
    <v>       0.25000000       0.00000000       0.50000000 </v>
    <v>       0.25000000       0.00000000       0.75000000 </v>
    <v>       0.25000000       0.25000000       0.00000000 </v>
    <v>       0.25000000       0.25000000       0.25000000 </v>
    <v>       0.25000000       0.25000000       0.50000000 </v>
    <v>       0.25000000       0.25000000       0.75000000 </v>
    <v>       0.25000000       0.50000000       0.00000000 </v>
    <v>       0.25000000       0.50000000       0.25000000 </v>
    <v>       0.25000000       0.50000000       0.50000000 </v>
    <v>       0.25000000       0.50000000       0.75000000 </v>
    <v>       0.25000000       0.75000000       0.00000000 </v>
    <v>       0.25000000       0.75000000       0.25000000 </v>
    <v>       0.25000000       0.75000000       0.50000000 </v>
    <v>       0.25000000       0.75000000       0.75000000 </v>
    <v>       0.50000000       0.00000000       0.00000000 </v>
    <v>       0.50000000       0.00000000       0.25000000 </v>
    <v>       0.50000000       0.00000000       0.50000000 </v>
    <v>       0.50000000       0.00000000       0.75000000 </v>
    <v>       0.50000000       0.25000000       0.00000000 </v>
    <v>       0.50000000       0.25000000       0.25000000 </v>
    <v>       0.50000000       0.25000000       0.50000000 </v>
    <v>       0.50000000       0.25000000       0.75000000 </v>
    <v>       0.50000000       0.50000000       0.00000000 </v>
    <v>       0.50000000       0.50000000       0.25000000 </v>
    <v>       0.50000000       0.50000000       0.50000000 </v>
    <v>       0.50000000       0.50000000       0.75000000 </v>
    <v>       0.50000000       0.75000000       0.00000000 </v>
    <v>       0.50000000       0.75000000       0.25000000 </v>
    <v>       0.50000000       0.75000000       0.50000000 </v>
    <v>       0.50000000       0.75000000       0.75000000 </v>
    <v>       0.75000000       0.00000000       0.00000000 </v>
    <v>       0.75000000       0.00000000       0.25000000 </v>
    <v>       0.75000000       0.00000000       0.50000000 </v>
    <v>       0.75000000       0.00000000       0.75000000 </v>
    <v>       0.75000000       0.25000000       0.00000000 </v>
    <v>       0.75000000       0.25000000       0.25000000 </v>
    <v>       0.75000000       0.25000000       0.50000000 </v>
    <v>       0.75000000       0.25000000       0.75000000 </v>
    <v>       0.75000000       0.50000000       0.00000000 </v>
    <v>       0.75000000       0.50000000       0.25000000 </v>
    <v>       0.75000000       0.50000000       0.50000000 </v>
    <v>       0.75000000       0.50000000       0.75000000 </v>
    <v>       0.75000000       0.75000000       0.00000000 </v>
    <v>       0.75000000       0.75000000       0.25000000 </v>
    <v>       0.75000000       0.75000000       0.50000000 </v>
    <v>       0.75000000       0.75000000       0.75000000 </v>
   </varray>
  </structure>
  <varray name="forces" >
   <v>      -0.00000000      -0.00000000       0.00000000 </v>
   <v>       0.00000000       0.00000000      -0.00000000 </v>
   <v>       0.00000000       0.00000000      -0.00000000 </v>
   <v>      -0.00000000      -0.00000000       0.00000000 </v>
   <v>      -0.00000000      -0.00000000       0.00000000 </v>
   <v>      -0.00000000       0.00000000      -0.00000000 </v>
   <v>       0.00000000       0.00000000       0.00000000 </v>
   <v>       0.00000000       0.00000000      -0.00000000 </v>
   <v>      -0.00000000      -0.00000000       0.00000000 </v>
   <v>       0.00000000       0.00000000      -0.00000000 </v>
   <v>       0.00000000       0.00000000       0.00000000 </v>
   <v>      -0.00000000       0.00000000      -0.00000000 </v>
   <v>      -0.00000000      -0.00000000      -0.00000000 </v>
   <v>      -0.00000000      -0.00000000      -0.00000000 </v>
   <v>      -0.00000000      -0.00000000       0.00000000 </v>
   <v>       0.00000000       0.00000000      -0.00000000 </v>
   <v>      -0.00000000      -0.00000000       0.00000000 </v>
   <v>       0.00000000       0.00000000      -0.00000000 </v>
   <v>       0.00000000       0.00000000       0.00000000 </v>
   <v>      -0.00000000       0.00000000      -0.00000000 </v>
   <v>      -0.00000000      -0.00000000       0.00000000 </v>
   <v>      -0.00000000       0.00000000      -0.00000000 </v>
   <v>      -0.00000000       0.00000000      -0.00000000 </v>
   <v>      -0.00000000       0.00000000      -0.00000000 </v>
   <v>      -0.00000000      -0.00000000       0.00000000 </v>
   <v>       0.00000000       0.00000000       0.00000000 </v>
   <v>      -0.00000000       0.00000000       0.00000000 </v>
   <v>      -0.00000000       0.00000000      -0.00000000 </v>
   <v>      -0.00000000      -0.00000000      -0.00000000 </v>
   <v>      -0.00000000       0.00000000       0.00000000 </v>
   <v>      -0.00000000       0.00000000      -0.00000000 </v>
   <v>      -0.00000000       0.00000000      -0.00000000 </v>
   <v>      -0.00000000      -0.00000000       0.00000000 </v>
   <v>       0.00000000       0.00000000      -0.00000000 </v>
   <v>       0.00000000       0.00000000      -0.00000000 </v>
   <v>       0.00000000       0.00000000      -0.00000000 </v>
   <v>      -0.00000000      -0.00000000       0.00000000 </v>
   <v>       0.00000000       0.00000000       0.00000000 </v>
   <v>      -0.00000000      -0.00000000       0.00000000 </v>
   <v>       0.00000000      -0.00000000      -0.00000000 </v>
   <v>      -0.00000000      -0.00000000       0.00000000 </v>
   <v>       0.00000000      -0.00000000       0.00000000 </v>
   <v>      -0.00000000       0.00000000       0.00000000 </v>
   <v>       0.00000000       0.00000000      -0.00000000 </v>
   <v>       0.00000000      -0.00000000       0.00000000 </v>
   <v>       0.00000000      -0.00000000      -0.00000000 </v>
   <v>       0.00000000       0.00000000       0.00000000 </v>
   <v>       0.00000000       0.00000000      -0.00000000 </v>
   <v>       0.00000000      -0.00000000       0.00000000 </v>
   <v>       0.00000000       0.00000000       0.00000000 </v>
   <v>       0.00000000       0.00000000       0.00000000 </v>
   <v>       0.00000000      -0.00000000       0.00000000 </v>
   <v>       0.00000000      -0.00000000       0.00000000 </v>
   <v>       0.00000000       0.00000000      -0.00000000 </v>
   <v>       0.00000000       0.00000000       0.00000000 </v>
   <v>       0.00000000      -0.00000000      -0.00000000 </v>
   <v>      -0.00000000      -0.00000000      -0.00000000 </v>
   <v>      -0.00000000      -0.00000000      -0.00000000 </v>
   <v>       0.00000000       0.00000000       0.00000000 </v>
   <v>      -0.00000000       0.00000000      -0.00000000 </v>
   <v>      -0.00000000      -0.00000000      -0.00000000 </v>
   <v>      -0.00000000      -0.00000000       0.00000000 </v>
   <v>       0.00000000      -0.00000000       0.00000000 </v>
   <v>       0.00000000       0.00000000      -0.00000000 </v>
  </varray>
  <varray name="stress" >
   <v>    -226.12732468       0.00000000      -0.00000000 </v>
   <v>       0.00000000    -226.12732468      -0.00000000 </v>
   <v>      -0.00000000      -0.00000000    -226.12732468 </v>
  </varray>
  <energy>
   <i name="e_fr_energy">   -367.53463365 </i>
   <i name="e_wo_entrp">   -367.48663328 </i>
   <i name="e_0_energy">     -0.14400111 </i>
  </energy>
  <kpoints>
   <generation param="Gamma">
    <v type="int" name="divisions">       5        5        5 </v>
    <v name="usershift">      0.00000000       0.00000000       0.00000000 </v>
    <v name="genvec1">      0.20000000       0.00000000       0.00000000 </v>
    <v name="genvec2">      0.00000000       0.20000000       0.00000000 </v>
    <v name="genvec3">      0.00000000       0.00000000       0.20000000 </v>
    <v name="shift">      0.00000000       0.00000000       0.00000000 </v>
   </generation>
   <varray name="kpointlist" >
    <v>       0.00000000       0.00000000       0.00000000 </v>
    <v>       0.20000000       0.00000000       0.00000000 </v>
    <v>       0.40000000       0.00000000       0.00000000 </v>
    <v>       0.20000000       0.20000000       0.00000000 </v>
    <v>       0.40000000       0.20000000       0.00000000 </v>
    <v>      -0.40000000       0.20000000       0.00000000 </v>
    <v>      -0.20000000       0.20000000       0.00000000 </v>
    <v>       0.40000000       0.40000000       0.00000000 </v>
    <v>      -0.40000000       0.40000000       0.00000000 </v>
    <v>       0.00000000       0.20000000       0.20000000 </v>
    <v>       0.40000000       0.20000000       0.20000000 </v>
    <v>      -0.40000000       0.20000000       0.20000000 </v>
    <v>      -0.20000000       0.20000000       0.20000000 </v>
    <v>      -0.40000000       0.40000000       0.20000000 </v>
    <v>      -0.20000000       0.40000000       0.20000000 </v>
    <v>       0.40000000      -0.40000000       0.20000000 </v>
    <v>       0.00000000       0.40000000       0.40000000 </v>
    <v>      -0.20000000       0.40000000       0.40000000 </v>
   </varray>
   <varray name="weights" >
    <v>       0.00800000 </v>
    <v>       0.06400000 </v>
    <v>       0.06400000 </v>
    <v>       0.03200000 </v>
    <v>       0.12800000 </v>
    <v>       0.12800000 </v>
    <v>       0.06400000 </v>
    <v>       0.03200000 </v>
    <v>       0.06400000 </v>
    <v>       0.01600000 </v>
    <v>       0.03200000 </v>
    <v>       0.06400000 </v>
    <v>       0.06400000 </v>
    <v>       0.06400000 </v>
    <v>       0.06400000 </v>
    <v>       0.06400000 </v>
    <v>       0.01600000 </v>
    <v>       0.03200000 </v>
   </varray>
  </kpoints>
  <time name="totalsc"> 6319.4811790.48</time>
 </calculation>
 <calculation>
  <scstep>
   <time name="dav">  791.15  790.50</time>
   <time name="total">  813.79  813.13</time>
   <energy>
    <i name="alphaZ">   9415.99145534 </i>
    <i name="ewald">-151163.44274250 </i>
    <i name="hartreedc"> -60874.73630758 </i>
    <i name="XCdc">   5619.67723422 </i>
    <i name="pawpsdc"> 171634.53342716 </i>
    <i name="pawaedc">-180673.44969946 </i>
    <i name="eentropy">     -0.14398156 </i>
    <i name="bandstr"> -18339.18245683 </i>
    <i name="atom"> 224013.29143063 </i>
    <i name="e_fr_energy">   -367.46164058 </i>
    <i name="e_wo_entrp">   -367.31765901 </i>
    <i name="e_0_energy">   -367.41364672 </i>
   </energy>
  </scstep>
  <scstep>
   <time name="dav">  716.23  715.67</time>
   <time name="total">  748.97  748.38</time>
   <energy>
    <i name="e_fr_energy">   -367.53454518 </i>
    <i name="e_wo_entrp">   -367.39066055 </i>
    <i name="e_0_energy">   -367.48658363 </i>
   </energy>
  </scstep>
  <scstep>
   <time name="dav">  970.04  969.75</time>
   <time name="total"> 1002.67 1002.36</time>
   <energy>
    <i name="e_fr_energy">   -367.53558665 </i>
    <i name="e_wo_entrp">   -367.39162900 </i>
    <i name="e_0_energy">   -367.48760077 </i>
   </energy>
  </scstep>
  <scstep>
   <time name="dav">  962.91  962.32</time>
   <time name="total">  997.38  996.78</time>
   <energy>
    <i name="e_fr_energy">   -367.53521702 </i>
    <i name="e_wo_entrp">   -367.39128679 </i>
    <i name="e_0_energy">   -367.48724028 </i>
   </energy>
  </scstep>
  <scstep>
   <time name="dav">  886.76  886.20</time>
   <time name="total">  922.92  922.33</time>
   <energy>
    <i name="e_fr_energy">   -367.53394047 </i>
    <i name="e_wo_entrp">   -367.38995794 </i>
    <i name="e_0_energy">   -367.48594630 </i>
   </energy>
  </scstep>
  <scstep>
   <time name="dav"> 1030.58 1029.95</time>
   <time name="total"> 1066.83 1066.18</time>
   <energy>
    <i name="e_fr_energy">   -367.53392999 </i>
    <i name="e_wo_entrp">   -367.38994497 </i>
    <i name="e_0_energy">   -367.48593499 </i>
   </energy>
  </scstep>
  <scstep>
   <time name="dav">  905.39  904.95</time>
   <time name="total">  940.77  940.31</time>
   <energy>
    <i name="e_fr_energy">   -367.53388763 </i>
    <i name="e_wo_entrp">   -367.38990207 </i>
    <i name="e_0_energy">   -367.48589244 </i>
   </energy>
  </scstep>
  <scstep>
   <time name="dav">  911.52  910.91</time>
   <time name="total">  947.80  947.17</time>
   <energy>
    <i name="e_fr_energy">   -367.53387268 </i>
    <i name="e_wo_entrp">   -367.38988581 </i>
    <i name="e_0_energy">   -367.48587706 </i>
   </energy>
  </scstep>
  <scstep>
   <time name="dav">  890.06  889.44</time>
   <time name="total">  925.03  924.40</time>
   <energy>
    <i name="e_fr_energy">   -367.53388348 </i>
    <i name="e_wo_entrp">   -367.38989774 </i>
    <i name="e_0_energy">   -367.48588823 </i>
   </energy>
  </scstep>
  <scstep>
   <time name="dav">  979.36  978.63</time>
   <time name="total"> 1013.82 1013.07</time>
   <energy>
    <i name="e_fr_energy">   -367.53378881 </i>
    <i name="e_wo_entrp">   -367.38980127 </i>
    <i name="e_0_energy">   -367.48579296 </i>
   </energy>
  </scstep>
  <scstep>
   <time name="dav"> 1021.67 1021.01</time>
   <time name="total"> 1055.95 1055.26</time>
   <energy>
    <i name="e_fr_energy">   -367.53379642 </i>
    <i name="e_wo_entrp">   -367.38980958 </i>
    <i name="e_0_energy">   -367.48580081 </i>
   </energy>
  </scstep>
  <scstep>
   <time name="dav">  824.89  824.39</time>
   <time name="total">  857.77  857.25</time>
   <energy>
    <i name="e_fr_energy">   -367.53379115 </i>
    <i name="e_wo_entrp">   -367.38980612 </i>
    <i name="e_0_energy">   -367.48579614 </i>
   </energy>
  </scstep>
  <scstep>
   <time name="dav">  515.13  514.75</time>
   <time name="total">  515.93  515.55</time>
   <energy>
    <i name="alphaZ">   9415.99145534 </i>
    <i name="ewald">-151163.44274250 </i>
    <i name="hartreedc"> -60874.73030539 </i>
    <i name="XCdc">   5619.67682088 </i>
    <i name="pawpsdc"> 171634.39603463 </i>
    <i name="pawaedc">-180673.31577810 </i>
    <i name="eentropy">     -0.14398521 </i>
    <i name="bandstr"> -18339.25672102 </i>
    <i name="atom"> 224013.29143063 </i>
    <i name="e_fr_energy">   -367.53379072 </i>
    <i name="e_wo_entrp">   -367.38980551 </i>
    <i name="e_0_energy">   -367.48579565 </i>
   </energy>
  </scstep>
  <structure>
   <crystal>
    <varray name="basis" >
     <v>       0.00000000       7.15575000       7.15575000 </v>
     <v>       7.15575000       0.00000000       7.15575000 </v>
     <v>       7.15575000       7.15575000       0.00000000 </v>
    </varray>
    <i name="volume">    732.81689501 </i>
    <varray name="rec_basis" >
     <v>      -0.06987388       0.06987388       0.06987388 </v>
     <v>       0.06987388      -0.06987388       0.06987388 </v>
     <v>       0.06987388       0.06987388      -0.06987388 </v>
    </varray>
   </crystal>
   <varray name="positions" >
    <v>      -0.00104811       0.00104811       0.00104811 </v>
    <v>       0.00000000       0.00000000       0.25000000 </v>
    <v>       0.00000000       0.00000000       0.50000000 </v>
    <v>       0.00000000       0.00000000       0.75000000 </v>
    <v>       0.00000000       0.25000000       0.00000000 </v>
    <v>       0.00000000       0.25000000       0.25000000 </v>
    <v>       0.00000000       0.25000000       0.50000000 </v>
    <v>       0.00000000       0.25000000       0.75000000 </v>
    <v>       0.00000000       0.50000000       0.00000000 </v>
    <v>       0.00000000       0.50000000       0.25000000 </v>
    <v>       0.00000000       0.50000000       0.50000000 </v>
    <v>       0.00000000       0.50000000       0.75000000 </v>
    <v>       0.00000000       0.75000000       0.00000000 </v>
    <v>       0.00000000       0.75000000       0.25000000 </v>
    <v>       0.00000000       0.75000000       0.50000000 </v>
    <v>       0.00000000       0.75000000       0.75000000 </v>
    <v>       0.25000000       0.00000000       0.00000000 </v>
    <v>       0.25000000       0.00000000       0.25000000 </v>
    <v>       0.25000000       0.00000000       0.50000000 </v>
    <v>       0.25000000       0.00000000       0.75000000 </v>
    <v>       0.25000000       0.25000000       0.00000000 </v>
    <v>       0.25000000       0.25000000       0.25000000 </v>
    <v>       0.25000000       0.25000000       0.50000000 </v>
    <v>       0.25000000       0.25000000       0.75000000 </v>
    <v>       0.25000000       0.50000000       0.00000000 </v>
    <v>       0.25000000       0.50000000       0.25000000 </v>
    <v>       0.25000000       0.50000000       0.50000000 </v>
    <v>       0.25000000       0.50000000       0.75000000 </v>
    <v>       0.25000000       0.75000000       0.00000000 </v>
    <v>       0.25000000       0.75000000       0.25000000 </v>
    <v>       0.25000000       0.75000000       0.50000000 </v>
    <v>       0.25000000       0.75000000       0.75000000 </v>
    <v>       0.50000000       0.00000000       0.00000000 </v>
    <v>       0.50000000       0.00000000       0.25000000 </v>
    <v>       0.50000000       0.00000000       0.50000000 </v>
    <v>       0.50000000       0.00000000       0.75000000 </v>
    <v>       0.50000000       0.25000000       0.00000000 </v>
    <v>       0.50000000       0.25000000       0.25000000 </v>
    <v>       0.50000000       0.25000000       0.50000000 </v>
    <v>       0.50000000       0.25000000       0.75000000 </v>
    <v>       0.50000000       0.50000000       0.00000000 </v>
    <v>       0.50000000       0.50000000       0.25000000 </v>
    <v>       0.50000000       0.50000000       0.50000000 </v>
    <v>       0.50000000       0.50000000       0.75000000 </v>
    <v>       0.50000000       0.75000000       0.00000000 </v>
    <v>       0.50000000       0.75000000       0.25000000 </v>
    <v>       0.50000000       0.75000000       0.50000000 </v>
    <v>       0.50000000       0.75000000       0.75000000 </v>
    <v>       0.75000000       0.00000000       0.00000000 </v>
    <v>       0.75000000       0.00000000       0.25000000 </v>
    <v>       0.75000000       0.00000000       0.50000000 </v>
    <v>       0.75000000       0.00000000       0.75000000 </v>
    <v>       0.75000000       0.25000000       0.00000000 </v>
    <v>       0.75000000       0.25000000       0.25000000 </v>
    <v>       0.75000000       0.25000000       0.50000000 </v>
    <v>       0.75000000       0.25000000       0.75000000 </v>
    <v>       0.75000000       0.50000000       0.00000000 </v>
    <v>       0.75000000       0.50000000       0.25000000 </v>
    <v>       0.75000000       0.50000000       0.50000000 </v>
    <v>       0.75000000       0.50000000       0.75000000 </v>
    <v>       0.75000000       0.75000000       0.00000000 </v>
    <v>       0.75000000       0.75000000       0.25000000 </v>
    <v>       0.75000000       0.75000000       0.50000000 </v>
    <v>       0.75000000       0.75000000       0.75000000 </v>
   </varray>
  </structure>
  <varray name="forces" >
   <v>      -0.11519363      -0.00000000       0.00000000 </v>
   <v>       0.01295008       0.01429710       0.00000000 </v>
   <v>      -0.00006094      -0.00037532       0.00000000 </v>
   <v>       0.01225624       0.01339438       0.00000000 </v>
   <v>       0.01295008      -0.00000000       0.01429710 </v>
   <v>       0.00112007       0.00062051       0.00062051 </v>
   <v>       0.00027331       0.00065119      -0.00032379 </v>
   <v>       0.00022193       0.00005304      -0.00005304 </v>
   <v>      -0.00006094      -0.00000000      -0.00037532 </v>
   <v>       0.00027331      -0.00032379       0.00065119 </v>
   <v>       0.00008804      -0.00000000      -0.00000000 </v>
   <v>       0.00029858      -0.00034736       0.00056738 </v>
   <v>       0.01225624      -0.00000000       0.01339438 </v>
   <v>       0.00022193      -0.00005304       0.00005304 </v>
   <v>       0.00029858       0.00056738      -0.00034736 </v>
   <v>       0.00118972       0.00058432       0.00058432 </v>
   <v>       0.00022193      -0.00005304      -0.00005304 </v>
   <v>       0.00029858       0.00056738       0.00034736 </v>
   <v>       0.00118972       0.00058432      -0.00058432 </v>
   <v>       0.01225624      -0.00000000      -0.01339438 </v>
   <v>       0.00029858       0.00034736       0.00056738 </v>
   <v>       0.00003656      -0.00000000       0.00000000 </v>
   <v>       0.00027331       0.00032379      -0.00065119 </v>
   <v>      -0.00051398      -0.00000000      -0.00007979 </v>
   <v>       0.00118972      -0.00058432       0.00058432 </v>
   <v>       0.00027331      -0.00065119       0.00032379 </v>
   <v>      -0.00030252      -0.00006257      -0.00006257 </v>
   <v>       0.00005975      -0.00000000      -0.00022420 </v>
   <v>       0.01225624      -0.01339438       0.00000000 </v>
   <v>      -0.00051398      -0.00007979       0.00000000 </v>
   <v>       0.00005975      -0.00022420       0.00000000 </v>
   <v>       0.00179134      -0.00000000       0.00000000 </v>
   <v>       0.00008804      -0.00000000       0.00000000 </v>
   <v>       0.00029858      -0.00034736      -0.00056738 </v>
   <v>      -0.00006094      -0.00000000       0.00037532 </v>
   <v>       0.00027331      -0.00032379      -0.00065119 </v>
   <v>       0.00029858      -0.00056738      -0.00034736 </v>
   <v>       0.00112007      -0.00062051      -0.00062051 </v>
   <v>      -0.00008304      -0.00000000       0.00009080 </v>
   <v>      -0.00030252       0.00006257      -0.00006257 </v>
   <v>      -0.00006094       0.00037532       0.00000000 </v>
   <v>      -0.00008304       0.00009080       0.00000000 </v>
   <v>      -0.00040585      -0.00000000       0.00000000 </v>
   <v>       0.00005975       0.00022420       0.00000000 </v>
   <v>       0.00027331      -0.00065119      -0.00032379 </v>
   <v>      -0.00030252      -0.00006257       0.00006257 </v>
   <v>       0.00005975      -0.00000000       0.00022420 </v>
   <v>       0.00118972      -0.00058432      -0.00058432 </v>
   <v>       0.00022193       0.00005304       0.00005304 </v>
   <v>       0.01295008      -0.00000000      -0.01429710 </v>
   <v>       0.00112007       0.00062051      -0.00062051 </v>
   <v>       0.00027331       0.00065119       0.00032379 </v>
   <v>       0.01295008      -0.01429710       0.00000000 </v>
   <v>       0.00163460      -0.00000000       0.00000000 </v>
   <v>      -0.00008304      -0.00009080       0.00000000 </v>
   <v>      -0.00051398       0.00007979       0.00000000 </v>
   <v>       0.00112007      -0.00062051       0.00062051 </v>
   <v>      -0.00008304      -0.00000000      -0.00009080 </v>
   <v>      -0.00030252       0.00006257       0.00006257 </v>
   <v>       0.00029858      -0.00056738       0.00034736 </v>
   <v>       0.00027331       0.00032379       0.00065119 </v>
   <v>      -0.00051398      -0.00000000       0.00007979 </v>
   <v>       0.00029858       0.00034736      -0.00056738 </v>
   <v>       0.00003656      -0.00000000      -0.00000000 </v>
  </varray>
  <varray name="stress" >
   <v>    -226.17026357       0.00000000      -0.00000000 </v>
   <v>       0.00000000    -226.17088054       0.00000000 </v>
   <v>      -0.00000000       0.00000000    -226.17088054 </v>
  </varray>
  <energy>
   <i name="e_fr_energy">   -367.53379072 </i>
   <i name="e_wo_entrp">   -367.48579565 </i>
   <i name="e_0_energy">     -0.14398521 </i>
  </energy>
  <kpoints>
   <generation param="Gamma">
    <v type="int" name="divisions">       5        5        5 </v>
    <v name="usershift">      0.00000000       0.00000000       0.00000000 </v>
    <v name="genvec1">      0.20000000       0.00000000       0.00000000 </v>
    <v name="genvec2">      0.00000000       0.20000000       0.00000000 </v>
    <v name="genvec3">      0.00000000       0.00000000       0.20000000 </v>
    <v name="shift">      0.00000000       0.00000000       0.00000000 </v>
   </generation>
   <varray name="kpointlist" >
    <v>       0.00000000       0.00000000       0.00000000 </v>
    <v>       0.20000000       0.00000000       0.00000000 </v>
    <v>       0.40000000       0.00000000       0.00000000 </v>
    <v>       0.20000000       0.20000000       0.00000000 </v>
    <v>       0.40000000       0.20000000       0.00000000 </v>
    <v>      -0.40000000       0.20000000       0.00000000 </v>
    <v>      -0.20000000       0.20000000       0.00000000 </v>
    <v>       0.40000000       0.40000000       0.00000000 </v>
    <v>      -0.40000000       0.40000000       0.00000000 </v>
    <v>       0.00000000       0.20000000       0.20000000 </v>
    <v>       0.40000000       0.20000000       0.20000000 </v>
    <v>      -0.40000000       0.20000000       0.20000000 </v>
    <v>      -0.20000000       0.20000000       0.20000000 </v>
    <v>      -0.40000000       0.40000000       0.20000000 </v>
    <v>      -0.20000000       0.40000000       0.20000000 </v>
    <v>       0.40000000      -0.40000000       0.20000000 </v>
    <v>       0.00000000       0.40000000       0.40000000 </v>
    <v>      -0.20000000       0.40000000       0.40000000 </v>
   </varray>
   <varray name="weights" >
    <v>       0.00800000 </v>
    <v>       0.06400000 </v>
    <v>       0.06400000 </v>
    <v>       0.03200000 </v>
    <v>       0.12800000 </v>
    <v>       0.12800000 </v>
    <v>       0.06400000 </v>
    <v>       0.03200000 </v>
    <v>       0.06400000 </v>
    <v>       0.01600000 </v>
    <v>       0.03200000 </v>
    <v>       0.06400000 </v>
    <v>       0.06400000 </v>
    <v>       0.06400000 </v>
    <v>       0.06400000 </v>
    <v>       0.06400000 </v>
    <v>       0.01600000 </v>
    <v>       0.03200000 </v>
   </varray>
  </kpoints>
  <time name="totalsc">12716.4012708.38</time>
 </calculation>
 <calculation>
  <scstep>
   <time name="dav">  938.51  937.75</time>
   <time name="total">  971.93  971.15</time>
   <energy>
    <i name="alphaZ">   9415.99145534 </i>
    <i name="ewald">-151163.44274250 </i>
    <i name="hartreedc"> -60874.76690041 </i>
    <i name="XCdc">   5619.67886249 </i>
    <i name="pawpsdc"> 171634.37315064 </i>
    <i name="pawaedc">-180673.29185868 </i>
    <i name="eentropy">     -0.14392401 </i>
    <i name="bandstr"> -18338.96382298 </i>
    <i name="atom"> 224013.29143063 </i>
    <i name="e_fr_energy">   -367.27434947 </i>
    <i name="e_wo_entrp">   -367.13042546 </i>
    <i name="e_0_energy">   -367.22637480 </i>
   </energy>
  </scstep>
  <scstep>
   <time name="dav">  770.29  769.67</time>
   <time name="total">  804.06  803.41</time>
   <energy>
    <i name="e_fr_energy">   -367.54716255 </i>
    <i name="e_wo_entrp">   -367.40402803 </i>
    <i name="e_0_energy">   -367.49945104 </i>
   </energy>
  </scstep>
  <scstep>
   <time name="dav">  855.05  854.36</time>
   <time name="total">  888.66  887.94</time>
   <energy>
    <i name="e_fr_energy">   -367.53660101 </i>
    <i name="e_wo_entrp">   -367.39261680 </i>
    <i name="e_0_energy">   -367.48860627 </i>
   </energy>
  </scstep>
  <scstep>
   <time name="dav">  891.68  890.96</time>
   <time name="total">  925.14  924.39</time>
   <energy>
    <i name="e_fr_energy">   -367.54200923 </i>
    <i name="e_wo_entrp">   -367.39834086 </i>
    <i name="e_0_energy">   -367.49411977 </i>
   </energy>
  </scstep>
  <scstep>
   <time name="dav">  820.97  821.04</time>
   <time name="total">  854.23  854.27</time>
   <energy>
    <i name="e_fr_energy">   -367.53442143 </i>
    <i name="e_wo_entrp">   -367.39044072 </i>
    <i name="e_0_energy">   -367.48642786 </i>
   </energy>
  </scstep>
  <scstep>
   <time name="dav">  915.08  914.46</time>
   <time name="total">  949.08  948.44</time>
   <energy>
    <i name="e_fr_energy">   -367.53425248 </i>
    <i name="e_wo_entrp">   -367.39026361 </i>
    <i name="e_0_energy">   -367.48625619 </i>
   </energy>
  </scstep>
  <scstep>
   <time name="dav">  820.81  820.49</time>
   <time name="total">  854.72  854.38</time>
   <energy>
    <i name="e_fr_energy">   -367.53416399 </i>
    <i name="e_wo_entrp">   -367.39017593 </i>
    <i name="e_0_energy">   -367.48616797 </i>
   </energy>
  </scstep>
  <scstep>
   <time name="dav">  824.12  823.46</time>
   <time name="total">  858.03  857.35</time>
   <energy>
    <i name="e_fr_energy">   -367.53402179 </i>
    <i name="e_wo_entrp">   -367.39003376 </i>
    <i name="e_0_energy">   -367.48602578 </i>
   </energy>
  </scstep>
  <scstep>
   <time name="dav">  796.27  795.66</time>
   <time name="total">  823.06  822.42</time>
   <energy>
    <i name="e_fr_energy">   -367.53412585 </i>
    <i name="e_wo_entrp">   -367.39013946 </i>
    <i name="e_0_energy">   -367.48613039 </i>
   </energy>
  </scstep>
  <scstep>
   <time name="dav">  893.08  892.37</time>
   <time name="total">  925.92  925.18</time>
   <energy>
    <i name="e_fr_energy">   -367.53389786 </i>
    <i name="e_wo_entrp">   -367.38991625 </i>
    <i name="e_0_energy">   -367.48590399 </i>
   </energy>
  </scstep>
  <scstep>
   <time name="dav">  874.26  873.69</time>
   <time name="total">  904.34  903.75</time>
   <energy>
    <i name="e_fr_energy">   -367.53378634 </i>
    <i name="e_wo_entrp">   -367.38979850 </i>
    <i name="e_0_energy">   -367.48579040 </i>
   </energy>
  </scstep>
  <scstep>
   <time name="dav">  988.31  987.53</time>
   <time name="total"> 1020.02 1019.22</time>
   <energy>
    <i name="e_fr_energy">   -367.53379980 </i>
    <i name="e_wo_entrp">   -367.38981644 </i>
    <i name="e_0_energy">   -367.48580535 </i>
   </energy>
  </scstep>
  <scstep>
   <time name="dav">  774.35  773.74</time>
   <time name="total">  804.50  803.86</time>
   <energy>
    <i name="e_fr_energy">   -367.53379125 </i>
    <i name="e_wo_entrp">   -367.38980662 </i>
    <i name="e_0_energy">   -367.48579637 </i>
   </energy>
  </scstep>
  <scstep>
   <time name="dav">  603.87  603.39</time>
   <time name="total">  636.37  635.87</time>
   <energy>
    <i name="e_fr_energy">   -367.53379255 </i>
    <i name="e_wo_entrp">   -367.38980799 </i>
    <i name="e_0_energy">   -367.48579770 </i>
   </energy>
  </scstep>
  <scstep>
   <time name="dav">  510.57  510.16</time>
   <time name="total">  542.88  542.45</time>
   <energy>
    <i name="e_fr_energy">   -367.53379076 </i>
    <i name="e_wo_entrp">   -367.38980329 </i>
    <i name="e_0_energy">   -367.48579494 </i>
   </energy>
  </scstep>
  <scstep>
   <time name="dav">  463.12  462.75</time>
   <time name="total">  463.90  463.53</time>
   <energy>
    <i name="alphaZ">   9415.99145534 </i>
    <i name="ewald">-151163.44274250 </i>
    <i name="hartreedc"> -60874.71760419 </i>
    <i name="XCdc">   5619.67634399 </i>
    <i name="pawpsdc"> 171634.36212688 </i>
    <i name="pawaedc">-180673.28188209 </i>
    <i name="eentropy">     -0.14398625 </i>
    <i name="bandstr"> -18339.26893307 </i>
    <i name="atom"> 224013.29143063 </i>
    <i name="e_fr_energy">   -367.53379125 </i>
    <i name="e_wo_entrp">   -367.38980500 </i>
    <i name="e_0_energy">   -367.48579583 </i>
   </energy>
  </scstep>
  <structure>
   <crystal>
    <varray name="basis" >
     <v>       0.00000000       7.15575000       7.15575000 </v>
     <v>       7.15575000       0.00000000       7.15575000 </v>
     <v>       7.15575000       7.15575000       0.00000000 </v>
    </varray>
    <i name="volume">    732.81689501 </i>
    <varray name="rec_basis" >
     <v>      -0.06987388       0.06987388       0.06987388 </v>
     <v>       0.06987388      -0.06987388       0.06987388 </v>
     <v>       0.06987388       0.06987388      -0.06987388 </v>
    </varray>
   </crystal>
   <varray name="positions" >
    <v>       0.00104811      -0.00104811      -0.00104811 </v>
    <v>       0.00000000       0.00000000       0.25000000 </v>
    <v>       0.00000000       0.00000000       0.50000000 </v>
    <v>       0.00000000       0.00000000       0.75000000 </v>
    <v>       0.00000000       0.25000000       0.00000000 </v>
    <v>       0.00000000       0.25000000       0.25000000 </v>
    <v>       0.00000000       0.25000000       0.50000000 </v>
    <v>       0.00000000       0.25000000       0.75000000 </v>
    <v>       0.00000000       0.50000000       0.00000000 </v>
    <v>       0.00000000       0.50000000       0.25000000 </v>
    <v>       0.00000000       0.50000000       0.50000000 </v>
    <v>       0.00000000       0.50000000       0.75000000 </v>
    <v>       0.00000000       0.75000000       0.00000000 </v>
    <v>       0.00000000       0.75000000       0.25000000 </v>
    <v>       0.00000000       0.75000000       0.50000000 </v>
    <v>       0.00000000       0.75000000       0.75000000 </v>
    <v>       0.25000000       0.00000000       0.00000000 </v>
    <v>       0.25000000       0.00000000       0.25000000 </v>
    <v>       0.25000000       0.00000000       0.50000000 </v>
    <v>       0.25000000       0.00000000       0.75000000 </v>
    <v>       0.25000000       0.25000000       0.00000000 </v>
    <v>       0.25000000       0.25000000       0.25000000 </v>
    <v>       0.25000000       0.25000000       0.50000000 </v>
    <v>       0.25000000       0.25000000       0.75000000 </v>
    <v>       0.25000000       0.50000000       0.00000000 </v>
    <v>       0.25000000       0.50000000       0.25000000 </v>
    <v>       0.25000000       0.50000000       0.50000000 </v>
    <v>       0.25000000       0.50000000       0.75000000 </v>
    <v>       0.25000000       0.75000000       0.00000000 </v>
    <v>       0.25000000       0.75000000       0.25000000 </v>
    <v>       0.25000000       0.75000000       0.50000000 </v>
    <v>       0.25000000       0.75000000       0.75000000 </v>
    <v>       0.50000000       0.00000000       0.00000000 </v>
    <v>       0.50000000       0.00000000       0.25000000 </v>
    <v>       0.50000000       0.00000000       0.50000000 </v>
    <v>       0.50000000       0.00000000       0.75000000 </v>
    <v>       0.50000000       0.25000000       0.00000000 </v>
    <v>       0.50000000       0.25000000       0.25000000 </v>
    <v>       0.50000000       0.25000000       0.50000000 </v>
    <v>       0.50000000       0.25000000       0.75000000 </v>
    <v>       0.50000000       0.50000000       0.00000000 </v>
    <v>       0.50000000       0.50000000       0.25000000 </v>
    <v>       0.50000000       0.50000000       0.50000000 </v>
    <v>       0.50000000       0.50000000       0.75000000 </v>
    <v>       0.50000000       0.75000000       0.00000000 </v>
    <v>       0.50000000       0.75000000       0.25000000 </v>
    <v>       0.50000000       0.75000000       0.50000000 </v>
    <v>       0.50000000       0.75000000       0.75000000 </v>
    <v>       0.75000000       0.00000000       0.00000000 </v>
    <v>       0.75000000       0.00000000       0.25000000 </v>
    <v>       0.75000000       0.00000000       0.50000000 </v>
    <v>       0.75000000       0.00000000       0.75000000 </v>
    <v>       0.75000000       0.25000000       0.00000000 </v>
    <v>       0.75000000       0.25000000       0.25000000 </v>
    <v>       0.75000000       0.25000000       0.50000000 </v>
    <v>       0.75000000       0.25000000       0.75000000 </v>
    <v>       0.75000000       0.50000000       0.00000000 </v>
    <v>       0.75000000       0.50000000       0.25000000 </v>
    <v>       0.75000000       0.50000000       0.50000000 </v>
    <v>       0.75000000       0.50000000       0.75000000 </v>
    <v>       0.75000000       0.75000000       0.00000000 </v>
    <v>       0.75000000       0.75000000       0.25000000 </v>
    <v>       0.75000000       0.75000000       0.50000000 </v>
    <v>       0.75000000       0.75000000       0.75000000 </v>
   </varray>
  </structure>
  <varray name="forces" >
   <v>       0.11784060       0.00000000       0.00000000 </v>
   <v>      -0.01283994      -0.01434183       0.00000000 </v>
   <v>      -0.00005517       0.00018972       0.00000000 </v>
   <v>      -0.01345860      -0.01511316       0.00000000 </v>
   <v>      -0.01283994       0.00000000      -0.01434183 </v>
   <v>      -0.00110013      -0.00059969      -0.00059969 </v>
   <v>      -0.00023559      -0.00064532       0.00036728 </v>
   <v>       0.00007086       0.00008347      -0.00008347 </v>
   <v>      -0.00005517       0.00000000       0.00018972 </v>
   <v>      -0.00023559       0.00036728      -0.00064532 </v>
   <v>      -0.00005982       0.00000000      -0.00000000 </v>
   <v>      -0.00023925       0.00034595      -0.00058856 </v>
   <v>      -0.01345860       0.00000000      -0.01511316 </v>
   <v>       0.00007086      -0.00008347       0.00008347 </v>
   <v>      -0.00023925      -0.00058856       0.00034595 </v>
   <v>      -0.00115389      -0.00061616      -0.00061616 </v>
   <v>       0.00007086      -0.00008347      -0.00008347 </v>
   <v>      -0.00023925      -0.00058856      -0.00034595 </v>
   <v>      -0.00115389      -0.00061616       0.00061616 </v>
   <v>      -0.01345860       0.00000000       0.01511316 </v>
   <v>      -0.00023925      -0.00034595      -0.00058856 </v>
   <v>      -0.00004323       0.00000000       0.00000000 </v>
   <v>      -0.00023559      -0.00036728       0.00064532 </v>
   <v>       0.00058985       0.00000000       0.00003064 </v>
   <v>      -0.00115389       0.00061616      -0.00061616 </v>
   <v>      -0.00023559       0.00064532      -0.00036728 </v>
   <v>       0.00032460      -0.00003291      -0.00003291 </v>
   <v>       0.00001357       0.00000000       0.00007974 </v>
   <v>      -0.01345860       0.01511316       0.00000000 </v>
   <v>       0.00058985       0.00003064       0.00000000 </v>
   <v>       0.00001357       0.00007974       0.00000000 </v>
   <v>      -0.00182218       0.00000000       0.00000000 </v>
   <v>      -0.00005982       0.00000000       0.00000000 </v>
   <v>      -0.00023925       0.00034595       0.00058856 </v>
   <v>      -0.00005517       0.00000000      -0.00018972 </v>
   <v>      -0.00023559       0.00036728       0.00064532 </v>
   <v>      -0.00023925       0.00058856       0.00034595 </v>
   <v>      -0.00110013       0.00059969       0.00059969 </v>
   <v>      -0.00004825       0.00000000      -0.00014631 </v>
   <v>       0.00032460       0.00003291      -0.00003291 </v>
   <v>      -0.00005517      -0.00018972       0.00000000 </v>
   <v>      -0.00004825      -0.00014631       0.00000000 </v>
   <v>       0.00045193       0.00000000       0.00000000 </v>
   <v>       0.00001357      -0.00007974       0.00000000 </v>
   <v>      -0.00023559       0.00064532       0.00036728 </v>
   <v>       0.00032460      -0.00003291       0.00003291 </v>
   <v>       0.00001357       0.00000000      -0.00007974 </v>
   <v>      -0.00115389       0.00061616       0.00061616 </v>
   <v>       0.00007086       0.00008347       0.00008347 </v>
   <v>      -0.01283994       0.00000000       0.01434183 </v>
   <v>      -0.00110013      -0.00059969       0.00059969 </v>
   <v>      -0.00023559      -0.00064532      -0.00036728 </v>
   <v>      -0.01283994       0.01434183       0.00000000 </v>
   <v>      -0.00183717       0.00000000       0.00000000 </v>
   <v>      -0.00004825       0.00014631       0.00000000 </v>
   <v>       0.00058985      -0.00003064       0.00000000 </v>
   <v>      -0.00110013       0.00059969      -0.00059969 </v>
   <v>      -0.00004825       0.00000000       0.00014631 </v>
   <v>       0.00032460       0.00003291       0.00003291 </v>
   <v>      -0.00023925       0.00058856      -0.00034595 </v>
   <v>      -0.00023559      -0.00036728      -0.00064532 </v>
   <v>       0.00058985       0.00000000      -0.00003064 </v>
   <v>      -0.00023925      -0.00034595       0.00058856 </v>
   <v>      -0.00004323       0.00000000       0.00000000 </v>
  </varray>
  <varray name="stress" >
   <v>    -226.12446338       0.00000000      -0.00000000 </v>
   <v>       0.00000000    -226.11795595       0.00000000 </v>
   <v>       0.00000000       0.00000000    -226.11795595 </v>
  </varray>
  <energy>
   <i name="e_fr_energy">   -367.53379125 </i>
   <i name="e_wo_entrp">   -367.48579583 </i>
   <i name="e_0_energy">     -0.14398625 </i>
  </energy>
  <dynmat>
   <varray name="hessian" >
    <v>      -0.13235317       0.00000000       0.00000000       0.01462625       0.01622834      -0.00000000      -0.00000328      -0.00032092      -0.00000000       0.01462625       0.01622834       0.00000000       0.01462625       0.00000000       0.01622834       0.00129602       0.00069193       0.00069193       0.00029725       0.00069193      -0.00039313       0.00008580       0.00000000       0.00000000      -0.00000328       0.00000000      -0.00032092       0.00029725      -0.00039313       0.00069193       0.00008398      -0.00000000       0.00000000       0.00029725      -0.00039313       0.00069193       0.01462625      -0.00000000       0.01622834       0.00008580      -0.00000000      -0.00000000       0.00029725       0.00069193      -0.00039313       0.00129602       0.00069193       0.00069193       0.00008580       0.00000000       0.00000000       0.00029725       0.00069193       0.00039313       0.00129602       0.00069193      -0.00069193       0.01462625       0.00000000      -0.01622834       0.00029725       0.00039313       0.00069193       0.00004532       0.00000000      -0.00000000       0.00029725       0.00039313      -0.00069193      -0.00062692       0.00000000       0.00000000       0.00129602      -0.00069193       0.00069193       0.00029725      -0.00069193       0.00039313      -0.00035618       0.00000000       0.00000000       0.00000324      -0.00000000      -0.00015365       0.01462625      -0.01622834       0.00000000      -0.00062692      -0.00000000      -0.00000000       0.00000324      -0.00015365       0.00000000       0.00201206       0.00000000       0.00000000       0.00008398      -0.00000000       0.00000000       0.00029725      -0.00039313      -0.00069193      -0.00000328       0.00000000       0.00032092       0.00029725      -0.00039313      -0.00069193       0.00029725      -0.00069193      -0.00039313       0.00129602      -0.00069193      -0.00069193       0.00000324       0.00000000       0.00015365      -0.00035618       0.00000000      -0.00000000      -0.00000328       0.00032092      -0.00000000       0.00000324       0.00015365       0.00000000      -0.00048718       0.00000000      -0.00000000       0.00000324       0.00015365      -0.00000000       0.00029725      -0.00069193      -0.00039313      -0.00035618       0.00000000      -0.00000000       0.00000324      -0.00000000       0.00015365       0.00129602      -0.00069193      -0.00069193       0.00008580      -0.00000000       0.00000000       0.01462625      -0.00000000      -0.01622834       0.00129602       0.00069193      -0.00069193       0.00029725       0.00069193       0.00039313       0.01462625      -0.01622834       0.00000000       0.00201206       0.00000000      -0.00000000       0.00000324      -0.00015365      -0.00000000      -0.00062692      -0.00000000      -0.00000000       0.00129602      -0.00069193       0.00069193       0.00000324       0.00000000      -0.00015365      -0.00035618       0.00000000       0.00000000       0.00029725      -0.00069193       0.00039313       0.00029725       0.00039313       0.00069193      -0.00062692       0.00000000       0.00000000       0.00029725       0.00039313      -0.00069193       0.00004532       0.00000000      -0.00000000 </v>
    <v>       0.00000000      -0.13235317       0.00000000       0.01622834       0.01462625       0.00000000      -0.00032092      -0.00000328      -0.00000000       0.01622834       0.01462625       0.00000000      -0.00000000       0.00008580       0.00000000       0.00069193       0.00029725       0.00039313       0.00069193       0.00129602      -0.00069193      -0.00000000       0.01462625      -0.01622834       0.00000000       0.00008398      -0.00000000      -0.00039313       0.00029725      -0.00069193      -0.00000000      -0.00000328       0.00032092      -0.00039313       0.00029725      -0.00069193       0.00000000       0.00008580      -0.00000000       0.00000000       0.01462625      -0.01622834       0.00069193       0.00129602      -0.00069193       0.00069193       0.00029725       0.00039313      -0.00000000       0.01462625       0.01622834       0.00069193       0.00129602       0.00069193       0.00069193       0.00029725      -0.00039313      -0.00000000       0.00008580      -0.00000000       0.00039313       0.00029725       0.00069193       0.00000000       0.00004532      -0.00000000       0.00039313       0.00029725      -0.00069193       0.00000000      -0.00062692       0.00000000      -0.00069193       0.00029725      -0.00039313      -0.00069193       0.00129602      -0.00069193       0.00000000       0.00000324       0.00015365       0.00000000      -0.00035618       0.00000000      -0.01622834       0.01462625      -0.00000000      -0.00000000       0.00201206       0.00000000      -0.00015365       0.00000324      -0.00000000       0.00000000      -0.00062692       0.00000000      -0.00000000      -0.00000328      -0.00032092      -0.00039313       0.00029725       0.00069193       0.00000000       0.00008398      -0.00000000      -0.00039313       0.00029725       0.00069193      -0.00069193       0.00129602       0.00069193      -0.00069193       0.00029725       0.00039313      -0.00000000      -0.00035618      -0.00000000       0.00000000       0.00000324      -0.00015365       0.00032092      -0.00000328      -0.00000000       0.00015365       0.00000324       0.00000000       0.00000000      -0.00048718       0.00000000       0.00015365       0.00000324      -0.00000000      -0.00069193       0.00129602       0.00069193       0.00000000       0.00000324      -0.00015365       0.00000000      -0.00035618      -0.00000000      -0.00069193       0.00029725       0.00039313       0.00000000       0.01462625       0.01622834       0.00000000       0.00008580       0.00000000       0.00069193       0.00029725      -0.00039313       0.00069193       0.00129602       0.00069193      -0.01622834       0.01462625       0.00000000       0.00000000      -0.00062692       0.00000000      -0.00015365       0.00000324      -0.00000000      -0.00000000       0.00201206       0.00000000      -0.00069193       0.00029725      -0.00039313      -0.00000000      -0.00035618      -0.00000000       0.00000000       0.00000324       0.00015365      -0.00069193       0.00129602      -0.00069193       0.00039313       0.00029725       0.00069193       0.00000000      -0.00062692      -0.00000000       0.00039313       0.00029725      -0.00069193       0.00000000       0.00004532      -0.00000000 </v>
[...]
       <r>    22.2952     0.0000   648.0000 </r>
       <r>    22.5790     0.0000   648.0000 </r>
       <r>    22.8628     0.0000   648.0000 </r>
       <r>    23.1465     0.0000   648.0000 </r>
       <r>    23.4303     0.0000   648.0000 </r>
       <r>    23.7141     0.0000   648.0000 </r>
       <r>    23.9978     0.0000   648.0000 </r>
       <r>    24.2816     0.0000   648.0000 </r>
       <r>    24.5654     0.0000   648.0000 </r>
      </set>
      <set comment="spin 2">
       <r>   -60.5642     0.0000     0.0000 </r>
       <r>   -60.2805     0.0000     0.0000 </r>
       <r>   -59.9967     0.0000     0.0000 </r>
       <r>   -59.7129     0.0000     0.0000 </r>
       <r>   -59.4292     0.0000     0.0000 </r>
       <r>   -59.1454     0.0000     0.0000 </r>
       <r>   -58.8616     0.0000     0.0000 </r>
       <r>   -58.5779     0.0000     0.0000 </r>
       <r>   -58.2941     0.0000     0.0000 </r>
       <r>   -58.0103     0.0000     0.0000 </r>
       <r>   -57.7266    -0.0000    -0.0000 </r>
       <r>   -57.4428    -0.0000    -0.0000 </r>
       <r>   -57.1590    -0.0000    -0.0000 </r>
       <r>   -56.8753    -0.0000    -0.0000 </r>
       <r>   -56.5915    -0.0001    -0.0000 </r>
       <r>   -56.3077    -0.5517    -0.1566 </r>
       <r>   -56.0240   -17.0433    -4.9929 </r>
       <r>   -55.7402   422.0299   114.7645 </r>
       <r>   -55.4564   289.0051   196.7741 </r>
       <r>   -55.1727   -16.6841   192.0397 </r>
       <r>   -54.8889    -0.1401   192.0000 </r>
       <r>   -54.6051    -0.0000   192.0000 </r>
       <r>   -54.3214    -0.0000   192.0000 </r>
       <r>   -54.0376     0.0000   192.0000 </r>
       <r>   -53.7538     0.0000   192.0000 </r>
       <r>   -53.4701     0.0000   192.0000 </r>
       <r>   -53.1863     0.0000   192.0000 </r>
       <r>   -52.9026     0.0000   192.0000 </r>
       <r>   -52.6188     0.0000   192.0000 </r>
       <r>   -52.3350     0.0000   192.0000 </r>
       <r>   -52.0513     0.0000   192.0000 </r>
       <r>   -51.7675     0.0000   192.0000 </r>
       <r>   -51.4837     0.0000   192.0000 </r>
       <r>   -51.2000     0.0000   192.0000 </r>
       <r>   -50.9162     0.0000   192.0000 </r>
       <r>   -50.6324     0.0000   192.0000 </r>
       <r>   -50.3487     0.0000   192.0000 </r>
       <r>   -50.0649     0.0000   192.0000 </r>
       <r>   -49.7811     0.0000   192.0000 </r>
       <r>   -49.4974     0.0000   192.0000 </r>
       <r>   -49.2136     0.0000   192.0000 </r>
       <r>   -48.9298     0.0000   192.0000 </r>
       <r>   -48.6461     0.0000   192.0000 </r>
       <r>   -48.3623     0.0000   192.0000 </r>
       <r>   -48.0785     0.0000   192.0000 </r>
       <r>   -47.7948     0.0000   192.0000 </r>
       <r>   -47.5110     0.0000   192.0000 </r>
       <r>   -47.2272     0.0000   192.0000 </r>
       <r>   -46.9435     0.0000   192.0000 </r>
       <r>   -46.6597     0.0000   192.0000 </r>
       <r>   -46.3760     0.0000   192.0000 </r>
       <r>   -46.0922     0.0000   192.0000 </r>
       <r>   -45.8084     0.0000   192.0000 </r>
       <r>   -45.5247     0.0000   192.0000 </r>
       <r>   -45.2409     0.0000   192.0000 </r>
       <r>   -44.9571     0.0000   192.0000 </r>
       <r>   -44.6734     0.0000   192.0000 </r>
       <r>   -44.3896     0.0000   192.0000 </r>
       <r>   -44.1058     0.0000   192.0000 </r>
       <r>   -43.8221     0.0000   192.0000 </r>
       <r>   -43.5383     0.0000   192.0000 </r>
       <r>   -43.2545     0.0000   192.0000 </r>
       <r>   -42.9708     0.0000   192.0000 </r>
       <r>   -42.6870     0.0000   192.0000 </r>
       <r>   -42.4032     0.0000   192.0000 </r>
       <r>   -42.1195     0.0000   192.0000 </r>
       <r>   -41.8357     0.0000   192.0000 </r>
       <r>   -41.5519     0.0000   192.0000 </r>
       <r>   -41.2682     0.0000   192.0000 </r>
       <r>   -40.9844     0.0000   192.0000 </r>
       <r>   -40.7006     0.0000   192.0000 </r>
       <r>   -40.4169     0.0000   192.0000 </r>
       <r>   -40.1331     0.0000   192.0000 </r>
       <r>   -39.8494     0.0000   192.0000 </r>
       <r>   -39.5656     0.0000   192.0000 </r>
       <r>   -39.2818     0.0000   192.0000 </r>
       <r>   -38.9981     0.0000   192.0000 </r>
       <r>   -38.7143     0.0000   192.0000 </r>
       <r>   -38.4305     0.0000   192.0000 </r>
       <r>   -38.1468     0.0000   192.0000 </r>
       <r>   -37.8630     0.0000   192.0000 </r>
       <r>   -37.5792     0.0000   192.0000 </r>
       <r>   -37.2955     0.0000   192.0000 </r>
       <r>   -37.0117     0.0000   192.0000 </r>
       <r>   -36.7279     0.0000   192.0000 </r>
       <r>   -36.4442     0.0000   192.0000 </r>
       <r>   -36.1604     0.0000   192.0000 </r>
       <r>   -35.8766     0.0000   192.0000 </r>
       <r>   -35.5929     0.0000   192.0000 </r>
       <r>   -35.3091     0.0000   192.0000 </r>
       <r>   -35.0253     0.0000   192.0000 </r>
       <r>   -34.7416     0.0000   192.0000 </r>
       <r>   -34.4578     0.0000   192.0000 </r>
       <r>   -34.1740     0.0000   192.0000 </r>
       <r>   -33.8903     0.0000   192.0000 </r>
       <r>   -33.6065     0.0000   192.0000 </r>
       <r>   -33.3227     0.0000   192.0000 </r>
       <r>   -33.0390     0.0000   192.0000 </r>
       <r>   -32.7552     0.0000   192.0000 </r>
       <r>   -32.4715     0.0000   192.0000 </r>
       <r>   -32.1877     0.0000   192.0000 </r>
       <r>   -31.9039     0.0000   192.0000 </r>
       <r>   -31.6202     0.0000   192.0000 </r>
       <r>   -31.3364     0.0000   192.0000 </r>
       <r>   -31.0526     0.0000   192.0000 </r>
       <r>   -30.7689     0.0000   192.0000 </r>
       <r>   -30.4851     0.0000   192.0000 </r>
       <r>   -30.2013     0.0000   192.0000 </r>
       <r>   -29.9176     0.0000   192.0000 </r>
       <r>   -29.6338     0.0000   192.0000 </r>
       <r>   -29.3500     0.0000   192.0000 </r>
       <r>   -29.0663     0.0000   192.0000 </r>
       <r>   -28.7825     0.0000   192.0000 </r>
       <r>   -28.4987     0.0000   192.0000 </r>
       <r>   -28.2150     0.0000   192.0000 </r>
       <r>   -27.9312     0.0000   192.0000 </r>
       <r>   -27.6474     0.0000   192.0000 </r>
       <r>   -27.3637     0.0000   192.0000 </r>
       <r>   -27.0799     0.0000   192.0000 </r>
       <r>   -26.7961     0.0000   192.0000 </r>
       <r>   -26.5124     0.0000   192.0000 </r>
       <r>   -26.2286     0.0000   192.0000 </r>
       <r>   -25.9449     0.0000   192.0000 </r>
       <r>   -25.6611     0.0000   192.0000 </r>
       <r>   -25.3773     0.0000   192.0000 </r>
       <r>   -25.0936     0.0000   192.0000 </r>
       <r>   -24.8098     0.0000   192.0000 </r>
       <r>   -24.5260     0.0000   192.0000 </r>
       <r>   -24.2423     0.0000   192.0000 </r>
       <r>   -23.9585     0.0000   192.0000 </r>
       <r>   -23.6747     0.0000   192.0000 </r>
       <r>   -23.3910     0.0000   192.0000 </r>
       <r>   -23.1072     0.0000   192.0000 </r>
       <r>   -22.8234     0.0000   192.0000 </r>
       <r>   -22.5397     0.0000   192.0000 </r>
       <r>   -22.2559     0.0000   192.0000 </r>
       <r>   -21.9721     0.0000   192.0000 </r>
       <r>   -21.6884     0.0000   192.0000 </r>
       <r>   -21.4046     0.0000   192.0000 </r>
       <r>   -21.1208     0.0000   192.0000 </r>
       <r>   -20.8371     0.0000   192.0000 </r>
       <r>   -20.5533     0.0000   192.0000 </r>
       <r>   -20.2695     0.0000   192.0000 </r>
       <r>   -19.9858     0.0000   192.0000 </r>
       <r>   -19.7020     0.0000   192.0000 </r>
       <r>   -19.4183     0.0000   192.0000 </r>
       <r>   -19.1345     0.0000   192.0000 </r>
       <r>   -18.8507     0.0000   192.0000 </r>
       <r>   -18.5670     0.0000   192.0000 </r>
       <r>   -18.2832     0.0000   192.0000 </r>
       <r>   -17.9994     0.0000   192.0000 </r>
       <r>   -17.7157     0.0000   192.0000 </r>
       <r>   -17.4319     0.0000   192.0000 </r>
       <r>   -17.1481     0.0000   192.0000 </r>
       <r>   -16.8644     0.0000   192.0000 </r>
       <r>   -16.5806     0.0000   192.0000 </r>
       <r>   -16.2968     0.0000   192.0000 </r>
       <r>   -16.0131     0.0000   192.0000 </r>
       <r>   -15.7293     0.0000   192.0000 </r>
       <r>   -15.4455     0.0000   192.0000 </r>
       <r>   -15.1618     0.0000   192.0000 </r>
       <r>   -14.8780     0.0000   192.0000 </r>
       <r>   -14.5942     0.0000   192.0000 </r>
       <r>   -14.3105     0.0000   192.0000 </r>
       <r>   -14.0267     0.0000   192.0000 </r>
       <r>   -13.7429     0.0000   192.0000 </r>
       <r>   -13.4592     0.0000   192.0000 </r>
       <r>   -13.1754     0.0000   192.0000 </r>
       <r>   -12.8916     0.0000   192.0000 </r>
       <r>   -12.6079     0.0000   192.0000 </r>
       <r>   -12.3241     0.0000   192.0000 </r>
       <r>   -12.0404     0.0000   192.0000 </r>
       <r>   -11.7566     0.0000   192.0000 </r>
       <r>   -11.4728     0.0000   192.0000 </r>
       <r>   -11.1891     0.0000   192.0000 </r>
       <r>   -10.9053     0.0000   192.0000 </r>
       <r>   -10.6215     0.0000   192.0000 </r>
       <r>   -10.3378     0.0000   192.0000 </r>
       <r>   -10.0540     0.0000   192.0000 </r>
       <r>    -9.7702     0.0000   192.0000 </r>
       <r>    -9.4865     0.0000   192.0000 </r>
       <r>    -9.2027     0.0000   192.0000 </r>
       <r>    -8.9189     0.0000   192.0000 </r>
       <r>    -8.6352     0.0000   192.0000 </r>
       <r>    -8.3514     0.0000   192.0000 </r>
       <r>    -8.0676     0.0000   192.0000 </r>
       <r>    -7.7839     0.0000   192.0000 </r>
       <r>    -7.5001     0.0000   192.0000 </r>
       <r>    -7.2163     0.0000   192.0000 </r>
       <r>    -6.9326     0.0000   192.0000 </r>
       <r>    -6.6488     0.0000   192.0000 </r>
       <r>    -6.3650     0.0000   192.0000 </r>
       <r>    -6.0813     0.0000   192.0000 </r>
       <r>    -5.7975     0.0000   192.0000 </r>
       <r>    -5.5138     0.0000   192.0000 </r>
       <r>    -5.2300     0.0000   192.0000 </r>
       <r>    -4.9462     0.0000   192.0000 </r>
       <r>    -4.6625     0.0000   192.0000 </r>
       <r>    -4.3787     0.0000   192.0000 </r>
       <r>    -4.0949     0.0000   192.0000 </r>
       <r>    -3.8112     0.0000   192.0000 </r>
       <r>    -3.5274     0.0000   192.0000 </r>
       <r>    -3.2436    -0.0000   192.0000 </r>
       <r>    -2.9599    -0.0000   192.0000 </r>
       <r>    -2.6761    -0.0000   192.0000 </r>
       <r>    -2.3923    -0.0000   192.0000 </r>
       <r>    -2.1086    -0.0000   192.0000 </r>
       <r>    -1.8248    -0.0027   191.9992 </r>
       <r>    -1.5410     0.0065   192.0011 </r>
       <r>    -1.2573     0.6403   192.1828 </r>
       <r>    -0.9735     1.3725   192.5722 </r>
       <r>    -0.6897     2.0303   193.1484 </r>
       <r>    -0.4060     2.2720   193.7931 </r>
       <r>    -0.1222     2.7019   194.5598 </r>
       <r>     0.1616     3.1877   195.4643 </r>
       <r>     0.4453     3.4172   196.4340 </r>
       <r>     0.7291     3.7598   197.5009 </r>
       <r>     1.0128     4.9646   198.9097 </r>
       <r>     1.2966     3.7401   199.9710 </r>
       <r>     1.5804     6.3137   201.7626 </r>
       <r>     1.8641     5.6036   203.3527 </r>
       <r>     2.1479     6.6107   205.2286 </r>
       <r>     2.4317     8.8580   207.7422 </r>
       <r>     2.7154     8.1027   210.0415 </r>
       <r>     2.9992    14.9996   214.2979 </r>
       <r>     3.2830    21.2021   220.3143 </r>
       <r>     3.5667    32.7620   229.6110 </r>
       <r>     3.8505    32.1564   238.7359 </r>
       <r>     4.1343    46.6682   251.9787 </r>
       <r>     4.4180    59.2323   268.7868 </r>
       <r>     4.7018    55.3500   284.4932 </r>
       <r>     4.9856    55.7616   300.3164 </r>
       <r>     5.2693    74.1694   321.3631 </r>
       <r>     5.5531    87.2247   346.1144 </r>
       <r>     5.8369    97.6843   373.8339 </r>
       <r>     6.1206    87.0585   398.5380 </r>
       <r>     6.4044    70.3005   418.4869 </r>
       <r>     6.6882    89.4663   443.8743 </r>
       <r>     6.9719    78.2839   466.0885 </r>
       <r>     7.2557    89.8423   491.5827 </r>
       <r>     7.5395   113.0417   523.6600 </r>
       <r>     7.8232    32.4319   532.8630 </r>
       <r>     8.1070     9.4547   535.5459 </r>
       <r>     8.3907    13.6922   539.4313 </r>
       <r>     8.6745    10.5997   542.4391 </r>
       <r>     8.9583    10.9748   545.5534 </r>
       <r>     9.2420     8.5027   547.9662 </r>
       <r>     9.5258    11.9524   551.3578 </r>
       <r>     9.8096     9.0863   553.9362 </r>
       <r>    10.0933     7.4542   556.0515 </r>
       <r>    10.3771     8.5096   558.4662 </r>
       <r>    10.6609    10.7062   561.5042 </r>
       <r>    10.9446     5.8155   563.1545 </r>
       <r>    11.2284     5.8907   564.8261 </r>
       <r>    11.5122     7.1738   566.8617 </r>
       <r>    11.7959     7.3452   568.9460 </r>
       <r>    12.0797     4.6680   570.2707 </r>
       <r>    12.3635     3.8250   571.3561 </r>
       <r>    12.6472     5.0016   572.7753 </r>
       <r>    12.9310     4.0260   573.9178 </r>
       <r>    13.2148     7.1934   575.9590 </r>
       <r>    13.4985    10.0464   578.8098 </r>
       <r>    13.7823    11.5268   582.0807 </r>
       <r>    14.0661    10.0452   584.9312 </r>
       <r>    14.3498     9.0148   587.4893 </r>
       <r>    14.6336     8.2799   589.8388 </r>
       <r>    14.9173     8.1914   592.1633 </r>
       <r>    15.2011    10.3972   595.1137 </r>
       <r>    15.4849     6.5424   596.9702 </r>
       <r>    15.7686     6.9495   598.9422 </r>
       <r>    16.0524     5.9305   600.6251 </r>
       <r>    16.3362     8.7722   603.1143 </r>
       <r>    16.6199    11.5640   606.3958 </r>
       <r>    16.9037     8.7683   608.8839 </r>
       <r>    17.1875    12.4082   612.4049 </r>
       <r>    17.4712    11.2346   615.5929 </r>
       <r>    17.7550     9.7743   618.3665 </r>
       <r>    18.0388    12.3502   621.8711 </r>
       <r>    18.3225    13.0141   625.5640 </r>
       <r>    18.6063    13.6750   629.4445 </r>
       <r>    18.8901     9.7653   632.2155 </r>
       <r>    19.1738    11.4734   635.4713 </r>
       <r>    19.4576    11.3818   638.7010 </r>
       <r>    19.7414    14.6229   642.8505 </r>
       <r>    20.0251     9.1432   645.4450 </r>
       <r>    20.3089     8.1796   647.7661 </r>
       <r>    20.5927     0.4284   647.8877 </r>
       <r>    20.8764     0.4026   648.0019 </r>
       <r>    21.1602    -0.0055   648.0003 </r>
       <r>    21.4440    -0.0012   648.0000 </r>
       <r>    21.7277    -0.0000   648.0000 </r>
       <r>    22.0115    -0.0000   648.0000 </r>
       <r>    22.2952     0.0000   648.0000 </r>
       <r>    22.5790     0.0000   648.0000 </r>
       <r>    22.8628     0.0000   648.0000 </r>
       <r>    23.1465     0.0000   648.0000 </r>
       <r>    23.4303     0.0000   648.0000 </r>
       <r>    23.7141     0.0000   648.0000 </r>
       <r>    23.9978     0.0000   648.0000 </r>
       <r>    24.2816     0.0000   648.0000 </r>
       <r>    24.5654     0.0000   648.0000 </r>
      </set>
     </set>
    </array>
   </total>
  </dos>
 </calculation>
 <structure name="finalpos" >
  <crystal>
   <varray name="basis" >
    <v>       0.00000000       7.15575000       7.15575000 </v>
    <v>       7.15575000       0.00000000       7.15575000 </v>
    <v>       7.15575000       7.15575000       0.00000000 </v>
   </varray>
   <i name="volume">    732.81689501 </i>
   <varray name="rec_basis" >
    <v>      -0.06987388       0.06987388       0.06987388 </v>
    <v>       0.06987388      -0.06987388       0.06987388 </v>
    <v>       0.06987388       0.06987388      -0.06987388 </v>
   </varray>
  </crystal>
  <varray name="positions" >
   <v>       0.00104811      -0.00104811      -0.00104811 </v>
   <v>       0.00000000       0.00000000       0.25000000 </v>
   <v>       0.00000000       0.00000000       0.50000000 </v>
   <v>       0.00000000       0.00000000       0.75000000 </v>
   <v>       0.00000000       0.25000000       0.00000000 </v>
   <v>       0.00000000       0.25000000       0.25000000 </v>
   <v>       0.00000000       0.25000000       0.50000000 </v>
   <v>       0.00000000       0.25000000       0.75000000 </v>
   <v>       0.00000000       0.50000000       0.00000000 </v>
   <v>       0.00000000       0.50000000       0.25000000 </v>
   <v>       0.00000000       0.50000000       0.50000000 </v>
   <v>       0.00000000       0.50000000       0.75000000 </v>
   <v>       0.00000000       0.75000000       0.00000000 </v>
   <v>       0.00000000       0.75000000       0.25000000 </v>
   <v>       0.00000000       0.75000000       0.50000000 </v>
   <v>       0.00000000       0.75000000       0.75000000 </v>
   <v>       0.25000000       0.00000000       0.00000000 </v>
   <v>       0.25000000       0.00000000       0.25000000 </v>
   <v>       0.25000000       0.00000000       0.50000000 </v>
   <v>       0.25000000       0.00000000       0.75000000 </v>
   <v>       0.25000000       0.25000000       0.00000000 </v>
   <v>       0.25000000       0.25000000       0.25000000 </v>
   <v>       0.25000000       0.25000000       0.50000000 </v>
   <v>       0.25000000       0.25000000       0.75000000 </v>
   <v>       0.25000000       0.50000000       0.00000000 </v>
   <v>       0.25000000       0.50000000       0.25000000 </v>
   <v>       0.25000000       0.50000000       0.50000000 </v>
   <v>       0.25000000       0.50000000       0.75000000 </v>
   <v>       0.25000000       0.75000000       0.00000000 </v>
   <v>       0.25000000       0.75000000       0.25000000 </v>
   <v>       0.25000000       0.75000000       0.50000000 </v>
   <v>       0.25000000       0.75000000       0.75000000 </v>
   <v>       0.50000000       0.00000000       0.00000000 </v>
   <v>       0.50000000       0.00000000       0.25000000 </v>
   <v>       0.50000000       0.00000000       0.50000000 </v>
   <v>       0.50000000       0.00000000       0.75000000 </v>
   <v>       0.50000000       0.25000000       0.00000000 </v>
   <v>       0.50000000       0.25000000       0.25000000 </v>
   <v>       0.50000000       0.25000000       0.50000000 </v>
   <v>       0.50000000       0.25000000       0.75000000 </v>
   <v>       0.50000000       0.50000000       0.00000000 </v>
   <v>       0.50000000       0.50000000       0.25000000 </v>
   <v>       0.50000000       0.50000000       0.50000000 </v>
   <v>       0.50000000       0.50000000       0.75000000 </v>
   <v>       0.50000000       0.75000000       0.00000000 </v>
   <v>       0.50000000       0.75000000       0.25000000 </v>
   <v>       0.50000000       0.75000000       0.50000000 </v>
   <v>       0.50000000       0.75000000       0.75000000 </v>
   <v>       0.75000000       0.00000000       0.00000000 </v>
   <v>       0.75000000       0.00000000       0.25000000 </v>
   <v>       0.75000000       0.00000000       0.50000000 </v>
   <v>       0.75000000       0.00000000       0.75000000 </v>
   <v>       0.75000000       0.25000000       0.00000000 </v>
   <v>       0.75000000       0.25000000       0.25000000 </v>
   <v>       0.75000000       0.25000000       0.50000000 </v>
   <v>       0.75000000       0.25000000       0.75000000 </v>
   <v>       0.75000000       0.50000000       0.00000000 </v>
   <v>       0.75000000       0.50000000       0.25000000 </v>
   <v>       0.75000000       0.50000000       0.50000000 </v>
   <v>       0.75000000       0.50000000       0.75000000 </v>
   <v>       0.75000000       0.75000000       0.00000000 </v>
   <v>       0.75000000       0.75000000       0.25000000 </v>
   <v>       0.75000000       0.75000000       0.50000000 </v>
   <v>       0.75000000       0.75000000       0.75000000 </v>
  </varray>
 </structure>
</modeling>
