       N       E                     dE             d eps       ncg     rms          rms(c)
DAV:   1     0.157674999810E+05    0.15767E+05   -0.60275E+05 11616   0.220E+03
DAV:   2     0.109253219558E+04   -0.14675E+05   -0.14253E+05 10368   0.710E+02
DAV:   3    -0.349142684847E+03   -0.14417E+04   -0.12077E+04 10520   0.239E+02
DAV:   4    -0.431031058068E+03   -0.81888E+02   -0.79484E+02 11088   0.587E+01
DAV:   5    -0.432403104379E+03   -0.13720E+01   -0.13702E+01 11056   0.745E+00    0.678E+01
DAV:   6    -0.400833318777E+03    0.31570E+02   -0.62071E+02 10912   0.749E+01    0.513E+01
DAV:   7    -0.369501947906E+03    0.31331E+02   -0.12626E+02 10808   0.342E+01    0.608E+00
DAV:   8    -0.369539499336E+03   -0.37551E-01   -0.13477E+00 11072   0.252E+00    0.309E+00
DAV:   9    -0.369391258623E+03    0.14824E+00   -0.24618E-01 11608   0.927E-01    0.791E-01
DAV:  10    -0.369397220917E+03   -0.59623E-02   -0.14312E-02 11728   0.232E-01    0.339E-01
DAV:  11    -0.369401317135E+03   -0.40962E-02   -0.71453E-03 11048   0.189E-01    0.110E-01
DAV:  12    -0.369401349021E+03   -0.31886E-04   -0.76077E-04 10840   0.643E-02    0.259E-02
DAV:  13    -0.369401356832E+03   -0.78117E-05   -0.36592E-05 10768   0.132E-02    0.202E-02
DAV:  14    -0.369401336007E+03    0.20825E-04   -0.89772E-06  9168   0.846E-03    0.648E-03
DAV:  15    -0.369401329205E+03    0.68029E-05   -0.14829E-06  5632   0.367E-03    0.127E-03
DAV:  16    -0.369401329274E+03   -0.69849E-07   -0.21272E-07  5464   0.114E-03
   1 F= -.36940133E+03 E0= -.36938950E+03  d E =-.354775E-01  mag=    44.8514
 Linear response reoptimize wavefunctions
DAV:   1    -0.369401329755E+03   -0.48109E-06   -0.24970E-08  5840   0.455E-04
DAV:   2    -0.369401329756E+03   -0.61118E-09   -0.53340E-09  5480   0.270E-04
DAV:   3    -0.369401329757E+03   -0.43656E-09   -0.11755E-09  5472   0.153E-04
 Linear response DOF=           1
 Linear response progress:
  Degree of freedom:   1/  1
       N       E                     dE             d eps       ncg     rms          rms(c)
RMM:   1    -0.134671475047E+01   -0.13467E+01   -0.44618E+02 15681   0.111E+02
RMM:   2    -0.161071846273E+01   -0.26400E+00   -0.11307E-01 24626   0.653E-01    0.393E-01
RMM:   3    -0.160983937141E+01    0.87909E-03   -0.23457E-03 25290   0.939E-02    0.798E-01
RMM:   4    -0.160894887922E+01    0.89049E-03   -0.17160E-03 18331   0.107E-01    0.770E-01
RMM:   5    -0.161084923280E+01   -0.19004E-02   -0.70095E-04 18390   0.618E-02    0.454E-01
RMM:   6    -0.160969856339E+01    0.11507E-02   -0.20437E-04 17656   0.393E-02    0.937E-02
RMM:   7    -0.160995966890E+01   -0.26111E-03   -0.19402E-04 20189   0.272E-02    0.271E-01
RMM:   8    -0.160939805495E+01    0.56161E-03   -0.86890E-05 17961   0.240E-02    0.594E-02
RMM:   9    -0.160946162587E+01   -0.63571E-04   -0.21979E-05 23164   0.954E-03    0.500E-02
RMM:  10    -0.160913368474E+01    0.32794E-03   -0.23871E-05 25326   0.593E-03    0.206E-02
RMM:  11    -0.160941920913E+01   -0.28552E-03   -0.21884E-05 28637   0.358E-03    0.181E-02
RMM:  12    -0.160915399907E+01    0.26521E-03   -0.30246E-05 26838   0.339E-03    0.141E-02
RMM:  13    -0.160922975291E+01   -0.75754E-04   -0.34636E-05 26997   0.307E-03    0.483E-03
RMM:  14    -0.160924979408E+01   -0.20041E-04   -0.38817E-05 30992   0.239E-03    0.890E-03
RMM:  15    -0.160921905200E+01    0.30742E-04   -0.48473E-05 31792   0.227E-03    0.199E-03
RMM:  16    -0.160920049545E+01    0.18557E-04   -0.50438E-05 34384   0.202E-03    0.372E-03
RMM:  17    -0.160920990819E+01   -0.94127E-05   -0.46523E-05 35090   0.197E-03    0.100E-03
RMM:  18    -0.160921134798E+01   -0.14398E-05   -0.40969E-05 37267   0.188E-03    0.520E-04
 Linear response finished
