 vasp.5.4.1 05Feb16 (build Oct 12 2016 17:31:35) complex                        
  
 executed on           IFC91_ompi date 2020.09.09  01:51:46
 running on    8 total cores
 distrk:  each k-point on    8 cores,    1 groups
 distr:  one band on NCORES_PER_BAND=   1 cores,    8 groups


--------------------------------------------------------------------------------------------------------


 INCAR:
 POTCAR:   PAW_PBE Ni_pv 06Sep2000                

 ----------------------------------------------------------------------------- 
|                                                                             |
|           W    W    AA    RRRRR   N    N  II  N    N   GGGG   !!!           |
|           W    W   A  A   R    R  NN   N  II  NN   N  G    G  !!!           |
|           W    W  A    A  R    R  N N  N  II  N N  N  G       !!!           |
|           W WW W  AAAAAA  RRRRR   N  N N  II  N  N N  G  GGG   !            |
|           WW  WW  A    A  R   R   N   NN  II  N   NN  G    G                |
|           W    W  A    A  R    R  N    N  II  N    N   GGGG   !!!           |
|                                                                             |
|      For optimal performance we recommend to set                            |
|        NCORE= 4 - approx SQRT( number of cores)                             |
|      NCORE specifies how many cores store one orbital (NPAR=cpu/NCORE).     |
|      This setting can  greatly improve the performance of VASP for DFT.     |
|      The default, NPAR=number of cores might be grossly inefficient         |
|      on modern multi-core architectures or massively parallel machines.     |
|      Do your own testing !!!!                                               |
|      Unfortunately you need to use the default for GW and RPA calculations. |
|      (for HF NCORE is supported but not extensively tested yet)             |
|                                                                             |
 ----------------------------------------------------------------------------- 

 POTCAR:   PAW_PBE Ni_pv 06Sep2000                
  local pseudopotential read in
  partial core-charges read in
  atomic valenz-charges read in
  non local Contribution for L=           1  read in
    real space projection operators read in
  non local Contribution for L=           1  read in
    real space projection operators read in
  non local Contribution for L=           2  read in
    real space projection operators read in
  non local Contribution for L=           2  read in
    real space projection operators read in
  non local Contribution for L=           0  read in
    real space projection operators read in
  non local Contribution for L=           0  read in
    real space projection operators read in
    PAW grid and wavefunctions read in
 
   number of l-projection  operators is LMAX  =           6
   number of lm-projection operators is LMMAX =          18
 

 ----------------------------------------------------------------------------- 
|                                                                             |
|  ADVICE TO THIS USER RUNNING 'VASP/VAMP'   (HEAR YOUR MASTER'S VOICE ...):  |
|                                                                             |
|      You have a (more or less) 'large supercell' and for larger cells       |
|      it might be more efficient to use real space projection operators      |
|      So try LREAL= Auto  in the INCAR   file.                               |
|      Mind: If you want to do a very accurate calculations keep the          |
|      reciprocal projection scheme          (i.e. LREAL=.FALSE.)             |
|                                                                             |
 ----------------------------------------------------------------------------- 

 PAW_PBE Ni_pv 06Sep2000                :
 energy of atom  1       EATOM=-3500.3496
 kinetic energy error for atom=    0.0894 (will be added to EATOM!!)
 
 
 POSCAR: Supercell by Yi Wang                    
  positions in direct lattice
  No initial velocities read in
 exchange correlation table for  LEXCH =        8
   RHO(1)=    0.500       N(1)  =     2000
   RHO(2)=  100.500       N(2)  =     4000
 


--------------------------------------------------------------------------------------------------------


 ion  position               nearest neighbor table
   1  0.000  0.000  0.000-   2 2.53   4 2.53   5 2.53   8 2.53  13 2.53  14 2.53  17 2.53  20 2.53
                            29 2.53  49 2.53  50 2.53  53 2.53
   2  0.000  0.000  0.250-   1 2.53   3 2.53   5 2.53   6 2.53  14 2.53  15 2.53  17 2.53  18 2.53
                            30 2.53  50 2.53  51 2.53  54 2.53
   3  0.000  0.000  0.500-   2 2.53   4 2.53   6 2.53   7 2.53  15 2.53  16 2.53  18 2.53  19 2.53
                            31 2.53  51 2.53  52 2.53  55 2.53
   4  0.000  0.000  0.750-   1 2.53   3 2.53   7 2.53   8 2.53  13 2.53  16 2.53  19 2.53  20 2.53
                            32 2.53  49 2.53  52 2.53  56 2.53
   5  0.000  0.250  0.000-   1 2.53   2 2.53   6 2.53   8 2.53   9 2.53  12 2.53  17 2.53  21 2.53
                            24 2.53  53 2.53  54 2.53  57 2.53
   6  0.000  0.250  0.250-   2 2.53   3 2.53   5 2.53   7 2.53   9 2.53  10 2.53  18 2.53  21 2.53
                            22 2.53  54 2.53  55 2.53  58 2.53
   7  0.000  0.250  0.500-   3 2.53   4 2.53   6 2.53   8 2.53  10 2.53  11 2.53  19 2.53  22 2.53
                            23 2.53  55 2.53  56 2.53  59 2.53
   8  0.000  0.250  0.750-   1 2.53   4 2.53   5 2.53   7 2.53  11 2.53  12 2.53  20 2.53  23 2.53
                            24 2.53  53 2.53  56 2.53  60 2.53
   9  0.000  0.500  0.000-   5 2.53   6 2.53  10 2.53  12 2.53  13 2.53  16 2.53  21 2.53  25 2.53
                            28 2.53  57 2.53  58 2.53  61 2.53
  10  0.000  0.500  0.250-   6 2.53   7 2.53   9 2.53  11 2.53  13 2.53  14 2.53  22 2.53  25 2.53
                            26 2.53  58 2.53  59 2.53  62 2.53
  11  0.000  0.500  0.500-   7 2.53   8 2.53  10 2.53  12 2.53  14 2.53  15 2.53  23 2.53  26 2.53
                            27 2.53  59 2.53  60 2.53  63 2.53
  12  0.000  0.500  0.750-   5 2.53   8 2.53   9 2.53  11 2.53  15 2.53  16 2.53  24 2.53  27 2.53
                            28 2.53  57 2.53  60 2.53  64 2.53
  13  0.000  0.750  0.000-   1 2.53   4 2.53   9 2.53  10 2.53  14 2.53  16 2.53  25 2.53  29 2.53
                            32 2.53  49 2.53  61 2.53  62 2.53
  14  0.000  0.750  0.250-   1 2.53   2 2.53  10 2.53  11 2.53  13 2.53  15 2.53  26 2.53  29 2.53
                            30 2.53  50 2.53  62 2.53  63 2.53
  15  0.000  0.750  0.500-   2 2.53   3 2.53  11 2.53  12 2.53  14 2.53  16 2.53  27 2.53  30 2.53
                            31 2.53  51 2.53  63 2.53  64 2.53
  16  0.000  0.750  0.750-   3 2.53   4 2.53   9 2.53  12 2.53  13 2.53  15 2.53  28 2.53  31 2.53
                            32 2.53  52 2.53  61 2.53  64 2.53
  17  0.250  0.000  0.000-   1 2.53   2 2.53   5 2.53  18 2.53  20 2.53  21 2.53  24 2.53  29 2.53
                            30 2.53  33 2.53  36 2.53  45 2.53
  18  0.250  0.000  0.250-   2 2.53   3 2.53   6 2.53  17 2.53  19 2.53  21 2.53  22 2.53  30 2.53
                            31 2.53  33 2.53  34 2.53  46 2.53
  19  0.250  0.000  0.500-   3 2.53   4 2.53   7 2.53  18 2.53  20 2.53  22 2.53  23 2.53  31 2.53
                            32 2.53  34 2.53  35 2.53  47 2.53
  20  0.250  0.000  0.750-   1 2.53   4 2.53   8 2.53  17 2.53  19 2.53  23 2.53  24 2.53  29 2.53
                            32 2.53  35 2.53  36 2.53  48 2.53
  21  0.250  0.250  0.000-   5 2.53   6 2.53   9 2.53  17 2.53  18 2.53  22 2.53  24 2.53  25 2.53
                            28 2.53  33 2.53  37 2.53  40 2.53
  22  0.250  0.250  0.250-   6 2.53   7 2.53  10 2.53  18 2.53  19 2.53  21 2.53  23 2.53  25 2.53
                            26 2.53  34 2.53  37 2.53  38 2.53
  23  0.250  0.250  0.500-   7 2.53   8 2.53  11 2.53  19 2.53  20 2.53  22 2.53  24 2.53  26 2.53
                            27 2.53  35 2.53  38 2.53  39 2.53
  24  0.250  0.250  0.750-   5 2.53   8 2.53  12 2.53  17 2.53  20 2.53  21 2.53  23 2.53  27 2.53
                            28 2.53  36 2.53  39 2.53  40 2.53
  25  0.250  0.500  0.000-   9 2.53  10 2.53  13 2.53  21 2.53  22 2.53  26 2.53  28 2.53  29 2.53
                            32 2.53  37 2.53  41 2.53  44 2.53
  26  0.250  0.500  0.250-  10 2.53  11 2.53  14 2.53  22 2.53  23 2.53  25 2.53  27 2.53  29 2.53
                            30 2.53  38 2.53  41 2.53  42 2.53
  27  0.250  0.500  0.500-  11 2.53  12 2.53  15 2.53  23 2.53  24 2.53  26 2.53  28 2.53  30 2.53
                            31 2.53  39 2.53  42 2.53  43 2.53
  28  0.250  0.500  0.750-   9 2.53  12 2.53  16 2.53  21 2.53  24 2.53  25 2.53  27 2.53  31 2.53
                            32 2.53  40 2.53  43 2.53  44 2.53
  29  0.250  0.750  0.000-   1 2.53  13 2.53  14 2.53  17 2.53  20 2.53  25 2.53  26 2.53  30 2.53
                            32 2.53  41 2.53  45 2.53  48 2.53
  30  0.250  0.750  0.250-   2 2.53  14 2.53  15 2.53  17 2.53  18 2.53  26 2.53  27 2.53  29 2.53
                            31 2.53  42 2.53  45 2.53  46 2.53
  31  0.250  0.750  0.500-   3 2.53  15 2.53  16 2.53  18 2.53  19 2.53  27 2.53  28 2.53  30 2.53
                            32 2.53  43 2.53  46 2.53  47 2.53
  32  0.250  0.750  0.750-   4 2.53  13 2.53  16 2.53  19 2.53  20 2.53  25 2.53  28 2.53  29 2.53
                            31 2.53  44 2.53  47 2.53  48 2.53
  33  0.500  0.000  0.000-  17 2.53  18 2.53  21 2.53  34 2.53  36 2.53  37 2.53  40 2.53  45 2.53
                            46 2.53  49 2.53  52 2.53  61 2.53
  34  0.500  0.000  0.250-  18 2.53  19 2.53  22 2.53  33 2.53  35 2.53  37 2.53  38 2.53  46 2.53
                            47 2.53  49 2.53  50 2.53  62 2.53
  35  0.500  0.000  0.500-  19 2.53  20 2.53  23 2.53  34 2.53  36 2.53  38 2.53  39 2.53  47 2.53
                            48 2.53  50 2.53  51 2.53  63 2.53
  36  0.500  0.000  0.750-  17 2.53  20 2.53  24 2.53  33 2.53  35 2.53  39 2.53  40 2.53  45 2.53
                            48 2.53  51 2.53  52 2.53  64 2.53
  37  0.500  0.250  0.000-  21 2.53  22 2.53  25 2.53  33 2.53  34 2.53  38 2.53  40 2.53  41 2.53
                            44 2.53  49 2.53  53 2.53  56 2.53
  38  0.500  0.250  0.250-  22 2.53  23 2.53  26 2.53  34 2.53  35 2.53  37 2.53  39 2.53  41 2.53
                            42 2.53  50 2.53  53 2.53  54 2.53
  39  0.500  0.250  0.500-  23 2.53  24 2.53  27 2.53  35 2.53  36 2.53  38 2.53  40 2.53  42 2.53
                            43 2.53  51 2.53  54 2.53  55 2.53
  40  0.500  0.250  0.750-  21 2.53  24 2.53  28 2.53  33 2.53  36 2.53  37 2.53  39 2.53  43 2.53
                            44 2.53  52 2.53  55 2.53  56 2.53
  41  0.500  0.500  0.000-  25 2.53  26 2.53  29 2.53  37 2.53  38 2.53  42 2.53  44 2.53  45 2.53
                            48 2.53  53 2.53  57 2.53  60 2.53
  42  0.500  0.500  0.250-  26 2.53  27 2.53  30 2.53  38 2.53  39 2.53  41 2.53  43 2.53  45 2.53
                            46 2.53  54 2.53  57 2.53  58 2.53
  43  0.500  0.500  0.500-  27 2.53  28 2.53  31 2.53  39 2.53  40 2.53  42 2.53  44 2.53  46 2.53
                            47 2.53  55 2.53  58 2.53  59 2.53
  44  0.500  0.500  0.750-  25 2.53  28 2.53  32 2.53  37 2.53  40 2.53  41 2.53  43 2.53  47 2.53
                            48 2.53  56 2.53  59 2.53  60 2.53
  45  0.500  0.750  0.000-  17 2.53  29 2.53  30 2.53  33 2.53  36 2.53  41 2.53  42 2.53  46 2.53
                            48 2.53  57 2.53  61 2.53  64 2.53
  46  0.500  0.750  0.250-  18 2.53  30 2.53  31 2.53  33 2.53  34 2.53  42 2.53  43 2.53  45 2.53
                            47 2.53  58 2.53  61 2.53  62 2.53
  47  0.500  0.750  0.500-  19 2.53  31 2.53  32 2.53  34 2.53  35 2.53  43 2.53  44 2.53  46 2.53
                            48 2.53  59 2.53  62 2.53  63 2.53
  48  0.500  0.750  0.750-  20 2.53  29 2.53  32 2.53  35 2.53  36 2.53  41 2.53  44 2.53  45 2.53
                            47 2.53  60 2.53  63 2.53  64 2.53
  49  0.750  0.000  0.000-   1 2.53   4 2.53  13 2.53  33 2.53  34 2.53  37 2.53  50 2.53  52 2.53
                            53 2.53  56 2.53  61 2.53  62 2.53
  50  0.750  0.000  0.250-   1 2.53   2 2.53  14 2.53  34 2.53  35 2.53  38 2.53  49 2.53  51 2.53
                            53 2.53  54 2.53  62 2.53  63 2.53
  51  0.750  0.000  0.500-   2 2.53   3 2.53  15 2.53  35 2.53  36 2.53  39 2.53  50 2.53  52 2.53
                            54 2.53  55 2.53  63 2.53  64 2.53
  52  0.750  0.000  0.750-   3 2.53   4 2.53  16 2.53  33 2.53  36 2.53  40 2.53  49 2.53  51 2.53
                            55 2.53  56 2.53  61 2.53  64 2.53
  53  0.750  0.250  0.000-   1 2.53   5 2.53   8 2.53  37 2.53  38 2.53  41 2.53  49 2.53  50 2.53
                            54 2.53  56 2.53  57 2.53  60 2.53
  54  0.750  0.250  0.250-   2 2.53   5 2.53   6 2.53  38 2.53  39 2.53  42 2.53  50 2.53  51 2.53
                            53 2.53  55 2.53  57 2.53  58 2.53
  55  0.750  0.250  0.500-   3 2.53   6 2.53   7 2.53  39 2.53  40 2.53  43 2.53  51 2.53  52 2.53
                            54 2.53  56 2.53  58 2.53  59 2.53
  56  0.750  0.250  0.750-   4 2.53   7 2.53   8 2.53  37 2.53  40 2.53  44 2.53  49 2.53  52 2.53
                            53 2.53  55 2.53  59 2.53  60 2.53
  57  0.750  0.500  0.000-   5 2.53   9 2.53  12 2.53  41 2.53  42 2.53  45 2.53  53 2.53  54 2.53
                            58 2.53  60 2.53  61 2.53  64 2.53
  58  0.750  0.500  0.250-   6 2.53   9 2.53  10 2.53  42 2.53  43 2.53  46 2.53  54 2.53  55 2.53
                            57 2.53  59 2.53  61 2.53  62 2.53
  59  0.750  0.500  0.500-   7 2.53  10 2.53  11 2.53  43 2.53  44 2.53  47 2.53  55 2.53  56 2.53
                            58 2.53  60 2.53  62 2.53  63 2.53
  60  0.750  0.500  0.750-   8 2.53  11 2.53  12 2.53  41 2.53  44 2.53  48 2.53  53 2.53  56 2.53
                            57 2.53  59 2.53  63 2.53  64 2.53
  61  0.750  0.750  0.000-   9 2.53  13 2.53  16 2.53  33 2.53  45 2.53  46 2.53  49 2.53  52 2.53
                            57 2.53  58 2.53  62 2.53  64 2.53
  62  0.750  0.750  0.250-  10 2.53  13 2.53  14 2.53  34 2.53  46 2.53  47 2.53  49 2.53  50 2.53
                            58 2.53  59 2.53  61 2.53  63 2.53
  63  0.750  0.750  0.500-  11 2.53  14 2.53  15 2.53  35 2.53  47 2.53  48 2.53  50 2.53  51 2.53
                            59 2.53  60 2.53  62 2.53  64 2.53
  64  0.750  0.750  0.750-  12 2.53  15 2.53  16 2.53  36 2.53  45 2.53  48 2.53  51 2.53  52 2.53
                            57 2.53  60 2.53  61 2.53  63 2.53
 
  LATTYP: Found a face centered cubic cell.
 ALAT       =    14.3115000000
  
  Lattice vectors:
  
 A1 = (   0.0000000000,   7.1557500000,   7.1557500000)
 A2 = (   7.1557500000,   0.0000000000,   7.1557500000)
 A3 = (   7.1557500000,   7.1557500000,   0.0000000000)


Analysis of symmetry for initial positions (statically):
=====================================================================
 Subroutine PRICEL returns following result:
 
  LATTYP: Found a face centered cubic cell.
 ALAT       =     3.5778750000
  
  Lattice vectors:
  
 A1 = (   0.0000000000,   1.7889375000,   1.7889375000)
 A2 = (   1.7889375000,   0.0000000000,   1.7889375000)
 A3 = (   1.7889375000,   1.7889375000,   0.0000000000)
 
  64 primitive cells build up your supercell.
 

 Routine SETGRP: Setting up the symmetry group for a 
 face centered cubic supercell.


 Subroutine GETGRP returns: Found 48 space group operations
 (whereof 48 operations were pure point group operations)
 out of a pool of 48 trial point group operations.


The static configuration has the point symmetry O_h .


Analysis of symmetry for dynamics (positions and initial velocities):
=====================================================================
 Subroutine PRICEL returns following result:
 
  LATTYP: Found a face centered cubic cell.
 ALAT       =     3.5778750000
  
  Lattice vectors:
  
 A1 = (   0.0000000000,   1.7889375000,   1.7889375000)
 A2 = (   1.7889375000,   0.0000000000,   1.7889375000)
 A3 = (   1.7889375000,   1.7889375000,   0.0000000000)
 
  64 primitive cells build up your supercell.
 

 Routine SETGRP: Setting up the symmetry group for a 
 face centered cubic supercell.


 Subroutine GETGRP returns: Found 48 space group operations
 (whereof 48 operations were pure point group operations)
 out of a pool of 48 trial point group operations.


The dynamic configuration has the point symmetry O_h .


Analysis of structural, dynamic, and magnetic symmetry:
=====================================================================
 Subroutine PRICEL returns following result:
 
  LATTYP: Found a face centered cubic cell.
 ALAT       =     3.5778750000
  
  Lattice vectors:
  
 A1 = (   0.0000000000,   1.7889375000,   1.7889375000)
 A2 = (   1.7889375000,   0.0000000000,   1.7889375000)
 A3 = (   1.7889375000,   1.7889375000,   0.0000000000)
 
  64 primitive cells build up your supercell.
 

 Routine SETGRP: Setting up the symmetry group for a 
 face centered cubic supercell.


 Subroutine GETGRP returns: Found 48 space group operations
 (whereof 48 operations were pure point group operations)
 out of a pool of 48 trial point group operations.


The magnetic configuration has the point symmetry O_h .


 Subroutine INISYM returns: Found 48 space group operations
 (whereof 48 operations are pure point group operations),
 and found    64 'primitive' translations

 
 
 KPOINTS: Zr 15x15x15                             

Automatic generation of k-mesh.
Space group operators:
 irot       det(A)        alpha          n_x          n_y          n_z        tau_x        tau_y        tau_z
    1     1.000000     0.000000     1.000000     0.000000     0.000000     0.000000     0.000000     0.000000
    2    -1.000000     0.000000     1.000000     0.000000     0.000000     0.000000     0.000000     0.000000
    3     1.000000   120.000000    -0.577350    -0.577350    -0.577350     0.000000     0.000000     0.000000
    4    -1.000000   120.000000    -0.577350    -0.577350    -0.577350     0.000000     0.000000     0.000000
    5     1.000000   120.000000     0.577350     0.577350     0.577350     0.000000     0.000000     0.000000
    6    -1.000000   120.000000     0.577350     0.577350     0.577350     0.000000     0.000000     0.000000
    7     1.000000    90.000000     0.000000     0.000000    -1.000000     0.000000     0.000000     0.000000
    8    -1.000000    90.000000     0.000000     0.000000    -1.000000     0.000000     0.000000     0.000000
    9     1.000000   180.000000     0.000000     0.707107     0.707107     0.000000     0.000000     0.000000
   10    -1.000000   180.000000     0.000000     0.707107     0.707107     0.000000     0.000000     0.000000
   11     1.000000    90.000000     0.000000     1.000000     0.000000     0.000000     0.000000     0.000000
   12    -1.000000    90.000000     0.000000     1.000000     0.000000     0.000000     0.000000     0.000000
   13     1.000000   180.000000     0.000000     0.000000     1.000000     0.000000     0.000000     0.000000
   14    -1.000000   180.000000     0.000000     0.000000     1.000000     0.000000     0.000000     0.000000
   15     1.000000   120.000000    -0.577350     0.577350     0.577350     0.000000     0.000000     0.000000
   16    -1.000000   120.000000    -0.577350     0.577350     0.577350     0.000000     0.000000     0.000000
   17     1.000000   120.000000    -0.577350     0.577350    -0.577350     0.000000     0.000000     0.000000
   18    -1.000000   120.000000    -0.577350     0.577350    -0.577350     0.000000     0.000000     0.000000
   19     1.000000    90.000000     0.000000     0.000000     1.000000     0.000000     0.000000     0.000000
   20    -1.000000    90.000000     0.000000     0.000000     1.000000     0.000000     0.000000     0.000000
   21     1.000000    90.000000    -1.000000     0.000000     0.000000     0.000000     0.000000     0.000000
   22    -1.000000    90.000000    -1.000000     0.000000     0.000000     0.000000     0.000000     0.000000
   23     1.000000   180.000000     0.707107     0.000000     0.707107     0.000000     0.000000     0.000000
   24    -1.000000   180.000000     0.707107     0.000000     0.707107     0.000000     0.000000     0.000000
   25     1.000000   120.000000     0.577350    -0.577350     0.577350     0.000000     0.000000     0.000000
   26    -1.000000   120.000000     0.577350    -0.577350     0.577350     0.000000     0.000000     0.000000
   27     1.000000   120.000000    -0.577350    -0.577350     0.577350     0.000000     0.000000     0.000000
   28    -1.000000   120.000000    -0.577350    -0.577350     0.577350     0.000000     0.000000     0.000000
   29     1.000000   180.000000     1.000000     0.000000     0.000000     0.000000     0.000000     0.000000
   30    -1.000000   180.000000     1.000000     0.000000     0.000000     0.000000     0.000000     0.000000
   31     1.000000    90.000000     0.000000    -1.000000     0.000000     0.000000     0.000000     0.000000
   32    -1.000000    90.000000     0.000000    -1.000000     0.000000     0.000000     0.000000     0.000000
   33     1.000000   180.000000     0.707107     0.707107     0.000000     0.000000     0.000000     0.000000
   34    -1.000000   180.000000     0.707107     0.707107     0.000000     0.000000     0.000000     0.000000
   35     1.000000    90.000000     1.000000     0.000000     0.000000     0.000000     0.000000     0.000000
   36    -1.000000    90.000000     1.000000     0.000000     0.000000     0.000000     0.000000     0.000000
   37     1.000000   120.000000     0.577350    -0.577350    -0.577350     0.000000     0.000000     0.000000
   38    -1.000000   120.000000     0.577350    -0.577350    -0.577350     0.000000     0.000000     0.000000
   39     1.000000   180.000000     0.000000     1.000000     0.000000     0.000000     0.000000     0.000000
   40    -1.000000   180.000000     0.000000     1.000000     0.000000     0.000000     0.000000     0.000000
   41     1.000000   120.000000     0.577350     0.577350    -0.577350     0.000000     0.000000     0.000000
   42    -1.000000   120.000000     0.577350     0.577350    -0.577350     0.000000     0.000000     0.000000
   43     1.000000   180.000000     0.000000    -0.707107     0.707107     0.000000     0.000000     0.000000
   44    -1.000000   180.000000     0.000000    -0.707107     0.707107     0.000000     0.000000     0.000000
   45     1.000000   180.000000     0.707107    -0.707107     0.000000     0.000000     0.000000     0.000000
   46    -1.000000   180.000000     0.707107    -0.707107     0.000000     0.000000     0.000000     0.000000
   47     1.000000   180.000000     0.707107     0.000000    -0.707107     0.000000     0.000000     0.000000
   48    -1.000000   180.000000     0.707107     0.000000    -0.707107     0.000000     0.000000     0.000000
 
 Subroutine IBZKPT returns following result:
 ===========================================
 
 Found      4 irreducible k-points:
 
 Following reciprocal coordinates:
            Coordinates               Weight
  0.000000  0.000000  0.000000      1.000000
  0.333333  0.000000  0.000000      8.000000
  0.333333  0.333333  0.000000      6.000000
 -0.333333  0.333333  0.000000     12.000000
 
 Following cartesian coordinates:
            Coordinates               Weight
  0.000000  0.000000  0.000000      1.000000
 -0.023291  0.023291  0.023291      8.000000
  0.000000  0.000000  0.046583      6.000000
  0.046583 -0.046583  0.000000     12.000000
 
 
 Subroutine IBZKPT_HF returns following result:
 ==============================================
 
 Found     27 k-points in 1st BZ
 the following     27 k-points will be used (e.g. in the exchange kernel)
 Following reciprocal coordinates:   # in IRBZ
  0.000000  0.000000  0.000000    0.03703704   1 t-inv F
  0.333333  0.000000  0.000000    0.03703704   2 t-inv F
  0.333333  0.333333  0.000000    0.03703704   3 t-inv F
 -0.333333  0.333333  0.000000    0.03703704   4 t-inv F
 -0.333333  0.000000  0.000000    0.03703704   2 t-inv F
  0.000000  0.333333  0.000000    0.03703704   2 t-inv F
  0.000000 -0.333333  0.000000    0.03703704   2 t-inv F
  0.000000  0.000000  0.333333    0.03703704   2 t-inv F
  0.000000  0.000000 -0.333333    0.03703704   2 t-inv F
  0.333333  0.333333  0.333333    0.03703704   2 t-inv F
 -0.333333 -0.333333 -0.333333    0.03703704   2 t-inv F
 -0.333333 -0.333333  0.000000    0.03703704   3 t-inv F
  0.000000  0.333333  0.333333    0.03703704   3 t-inv F
  0.000000 -0.333333 -0.333333    0.03703704   3 t-inv F
  0.333333  0.000000  0.333333    0.03703704   3 t-inv F
 -0.333333  0.000000 -0.333333    0.03703704   3 t-inv F
  0.333333 -0.333333  0.000000    0.03703704   4 t-inv F
  0.000000 -0.333333  0.333333    0.03703704   4 t-inv F
  0.000000  0.333333 -0.333333    0.03703704   4 t-inv F
  0.333333  0.000000 -0.333333    0.03703704   4 t-inv F
 -0.333333  0.000000  0.333333    0.03703704   4 t-inv F
  0.333333  0.333333  0.666667    0.03703704   4 t-inv F
 -0.333333 -0.333333 -0.666667    0.03703704   4 t-inv F
 -0.333333 -0.666667 -0.333333    0.03703704   4 t-inv F
  0.333333  0.666667  0.333333    0.03703704   4 t-inv F
 -0.666667 -0.333333 -0.333333    0.03703704   4 t-inv F
  0.666667  0.333333  0.333333    0.03703704   4 t-inv F


--------------------------------------------------------------------------------------------------------




 Dimension of arrays:
   k-points           NKPTS =      4   k-points in BZ     NKDIM =      4   number of bands    NBANDS=    648
   number of dos      NEDOS =    301   number of ions     NIONS =     64
   non local maximal  LDIM  =      6   non local SUM 2l+1 LMDIM =     18
   total plane-waves  NPLWV = 373248
   max r-space proj   IRMAX =      1   max aug-charges    IRDMAX=   6707
   dimension x,y,z NGX =    72 NGY =   72 NGZ =   72
   dimension x,y,z NGXF=   120 NGYF=  120 NGZF=  120
   support grid    NGXF=   120 NGYF=  120 NGZF=  120
   ions per type =              64
 NGX,Y,Z   is equivalent  to a cutoff of  11.83, 11.83, 11.83 a.u.
 NGXF,Y,Z  is equivalent  to a cutoff of  19.71, 19.71, 19.71 a.u.


 I would recommend the setting:
   dimension x,y,z NGX =    71 NGY =   71 NGZ =   71
 SYSTEM =  phonon of Zr bcc - omiga                
 POSCAR =  Supercell by Yi Wang                    

 Startparameter for this run:
   NWRITE =      0    write-flag & timer
   PREC   = h         normal or accurate (medium, high low for compatibility)
   ISTART =      0    job   : 0-new  1-cont  2-samecut
   ICHARG =      2    charge: 1-file 2-atom 10-const
   ISPIN  =      2    spin polarized calculation?
   LNONCOLLINEAR =      F non collinear calculations
   LSORBIT =      F    spin-orbit coupling
   INIWAV =      1    electr: 0-lowe 1-rand  2-diag
   LASPH  =      F    aspherical Exc in radial PAW
   METAGGA=      F    non-selfconsistent MetaGGA calc.

 Electronic Relaxation 1
   ENCUT  =  459.9 eV  33.80 Ry    5.81 a.u.  17.70 17.70 17.70*2*pi/ulx,y,z
   ENINI  =  459.9     initial cutoff
   ENAUG  =  703.4 eV  augmentation charge cutoff
   NELM   =     60;   NELMIN=  2; NELMDL= -5     # of ELM steps 
   EDIFF  = 0.1E-05   stopping-criterion for ELM
   LREAL  =      F    real-space projection
   NLSPLINE    = F    spline interpolate recip. space projectors
   LCOMPAT=      F    compatible to vasp.4.4
   GGA_COMPAT  = T    GGA compatible to vasp.4.4-vasp.4.6
   LMAXPAW     = -100 max onsite density
   LMAXMIX     =    2 max onsite mixed and CHGCAR
   VOSKOWN=      0    Vosko Wilk Nusair interpolation
   ROPT   =    0.00000
 Ionic relaxation
   EDIFFG = 0.1E-04   stopping-criterion for IOM
   NSW    =      1    number of steps for IOM
   NBLOCK =      1;   KBLOCK =      1    inner block; outer block 
   IBRION =      8    ionic relax: 0-MD 1-quasi-New 2-CG
   NFREE  =      0    steps in history (QN), initial steepest desc. (CG)
   ISIF   =      2    stress and relaxation
   IWAVPR =     11    prediction:  0-non 1-charg 2-wave 3-comb
   ISYM   =      2    0-nonsym 1-usesym 2-fastsym
   LCORR  =      T    Harris-Foulkes like correction to forces

   POTIM  = 0.5000    time-step for ionic-motion
   TEIN   =    0.0    initial temperature
   TEBEG  =    0.0;   TEEND  =   0.0 temperature during run
   SMASS  =  -3.00    Nose mass-parameter (am)
   estimated Nose-frequenzy (Omega)   =  0.10E-29 period in steps =****** mass=  -0.234E-26a.u.
   SCALEE = 1.0000    scale energy and forces
   NPACO  =    256;   APACO  = 16.0  distance and # of slots for P.C.
   PSTRESS=    0.0 pullay stress

  Mass of Ions in am
   POMASS =  58.69
  Ionic Valenz
   ZVAL   =  16.00
  Atomic Wigner-Seitz radii
   RWIGS  =  -1.00
  virtual crystal weights 
   VCA    =   1.00
   NELECT =    1024.0000    total number of electrons
   NUPDOWN=      -1.0000    fix difference up-down

 DOS related values:
   EMIN   =  10.00;   EMAX   =-10.00  energy-range for DOS
   EFERMI =   0.00
   ISMEAR =     1;   SIGMA  =   0.20  broadening in eV -4-tet -1-fermi 0-gaus

 Electronic relaxation 2 (details)
   IALGO  =     38    algorithm
   LDIAG  =      T    sub-space diagonalisation (order eigenvalues)
   LSUBROT=      F    optimize rotation matrix (better conditioning)
   TURBO    =      0    0=normal 1=particle mesh
   IRESTART =      0    0=no restart 2=restart with 2 vectors
   NREBOOT  =      0    no. of reboots
   NMIN     =      0    reboot dimension
   EREF     =   0.00    reference energy to select bands
   IMIX   =      4    mixing-type and parameters
     AMIX     =   0.40;   BMIX     =  1.00
     AMIX_MAG =   1.60;   BMIX_MAG =  1.00
     AMIN     =   0.10
     WC   =   100.;   INIMIX=   1;  MIXPRE=   1;  MAXMIX= -45

 Intra band minimization:
   WEIMIN = 0.0010     energy-eigenvalue tresh-hold
   EBREAK =  0.39E-09  absolut break condition
   DEPER  =   0.30     relativ break condition  

   TIME   =   0.40     timestep for ELM

  volume/ion in A,a.u.               =      11.45        77.27
  Fermi-wavevector in a.u.,A,eV,Ry     =   1.830247  3.458665 45.576842  3.349803
  Thomas-Fermi vector in A             =   2.884754
 
 Write flags
   LWAVE  =      T    write WAVECAR
   LCHARG =      T    write CHGCAR
   LVTOT  =      F    write LOCPOT, total local potential
   LVHAR  =      F    write LOCPOT, Hartree potential only
   LELF   =      F    write electronic localiz. function (ELF)
   LORBIT =      0    0 simple, 1 ext, 2 COOP (PROOUT)


 Dipole corrections
   LMONO  =      F    monopole corrections only (constant potential shift)
   LDIPOL =      F    correct potential (dipole corrections)
   IDIPOL =      0    1-x, 2-y, 3-z, 4-all directions 
   EPSILON=  1.0000000 bulk dielectric constant

 Exchange correlation treatment:
   GGA     =    --    GGA type
   LEXCH   =     8    internal setting for exchange type
   VOSKOWN=      0    Vosko Wilk Nusair interpolation
   LHFCALC =     F    Hartree Fock is set to
   LHFONE  =     F    Hartree Fock one center treatment
   AEXX    =    0.0000 exact exchange contribution

 Linear response parameters
   LEPSILON=     F    determine dielectric tensor
   LRPA    =     F    only Hartree local field effects (RPA)
   LNABLA  =     F    use nabla operator in PAW spheres
   LVEL    =     F    velocity operator in full k-point grid
   LINTERFAST=   F  fast interpolation
   KINTER  =     0    interpolate to denser k-point grid
   CSHIFT  =0.1000    complex shift for real part using Kramers Kronig
   OMEGAMAX=  -1.0    maximum frequency
   DEG_THRESHOLD= 0.2000000E-02 threshold for treating states as degnerate
   RTIME   =    0.100 relaxation time in fs

 Orbital magnetization related:
   ORBITALMAG=     F  switch on orbital magnetization
   LCHIMAG   =     F  perturbation theory with respect to B field
   DQ        =  0.001000  dq finite difference perturbation B field



--------------------------------------------------------------------------------------------------------


 linear response using symmetry
 charge density and potential will be updated during run
 spin polarized calculation
 Variant of blocked Davidson
 Davidson routine will perform the subspace rotation
 perform sub-space diagonalisation
    after iterative eigenvector-optimisation
 modified Broyden-mixing scheme, WC =      100.0
 initial mixing is a Kerker type mixing with AMIX =  0.4000 and BMIX =      1.0000
 Hartree-type preconditioning will be used
 using additional bands          136
 reciprocal scheme for non local part
 use partial core corrections
 calculate Harris-corrections to forces 
   (improved forces if not selfconsistent)
 use gradient corrections 
 use of overlap-Matrix (Vanderbilt PP)
 Methfessel and Paxton  Order N= 1 SIGMA  =   0.20


--------------------------------------------------------------------------------------------------------


  energy-cutoff  :      459.93
  volume of cell :      732.82
      direct lattice vectors                 reciprocal lattice vectors
     0.000000000  7.155750000  7.155750000    -0.069873878  0.069873878  0.069873878
     7.155750000  0.000000000  7.155750000     0.069873878 -0.069873878  0.069873878
     7.155750000  7.155750000  0.000000000     0.069873878  0.069873878 -0.069873878

  length of vectors
    10.119758699 10.119758699 10.119758699     0.121025106  0.121025106  0.121025106


 
 k-points in units of 2pi/SCALE and weight: Zr 15x15x15                             
   0.00000000  0.00000000  0.00000000       0.037
  -0.02329129  0.02329129  0.02329129       0.296
   0.00000000  0.00000000  0.04658259       0.222
   0.04658259 -0.04658259  0.00000000       0.444
 
 k-points in reciprocal lattice and weights: Zr 15x15x15                             
   0.00000000  0.00000000  0.00000000       0.037
   0.33333333  0.00000000  0.00000000       0.296
   0.33333333  0.33333333  0.00000000       0.222
  -0.33333333  0.33333333  0.00000000       0.444
 
 position of ions in fractional coordinates (direct lattice) 
   0.00000000  0.00000000  0.00000000
   0.00000000  0.00000000  0.25000000
   0.00000000  0.00000000  0.50000000
   0.00000000  0.00000000  0.75000000
   0.00000000  0.25000000  0.00000000
   0.00000000  0.25000000  0.25000000
   0.00000000  0.25000000  0.50000000
   0.00000000  0.25000000  0.75000000
   0.00000000  0.50000000  0.00000000
   0.00000000  0.50000000  0.25000000
   0.00000000  0.50000000  0.50000000
   0.00000000  0.50000000  0.75000000
   0.00000000  0.75000000  0.00000000
   0.00000000  0.75000000  0.25000000
   0.00000000  0.75000000  0.50000000
   0.00000000  0.75000000  0.75000000
   0.25000000  0.00000000  0.00000000
   0.25000000  0.00000000  0.25000000
   0.25000000  0.00000000  0.50000000
   0.25000000  0.00000000  0.75000000
   0.25000000  0.25000000  0.00000000
   0.25000000  0.25000000  0.25000000
   0.25000000  0.25000000  0.50000000
   0.25000000  0.25000000  0.75000000
   0.25000000  0.50000000  0.00000000
   0.25000000  0.50000000  0.25000000
   0.25000000  0.50000000  0.50000000
   0.25000000  0.50000000  0.75000000
   0.25000000  0.75000000  0.00000000
   0.25000000  0.75000000  0.25000000
   0.25000000  0.75000000  0.50000000
   0.25000000  0.75000000  0.75000000
   0.50000000  0.00000000  0.00000000
   0.50000000  0.00000000  0.25000000
   0.50000000  0.00000000  0.50000000
   0.50000000  0.00000000  0.75000000
   0.50000000  0.25000000  0.00000000
   0.50000000  0.25000000  0.25000000
   0.50000000  0.25000000  0.50000000
   0.50000000  0.25000000  0.75000000
   0.50000000  0.50000000  0.00000000
   0.50000000  0.50000000  0.25000000
   0.50000000  0.50000000  0.50000000
   0.50000000  0.50000000  0.75000000
   0.50000000  0.75000000  0.00000000
   0.50000000  0.75000000  0.25000000
   0.50000000  0.75000000  0.50000000
   0.50000000  0.75000000  0.75000000
   0.75000000  0.00000000  0.00000000
   0.75000000  0.00000000  0.25000000
   0.75000000  0.00000000  0.50000000
   0.75000000  0.00000000  0.75000000
   0.75000000  0.25000000  0.00000000
   0.75000000  0.25000000  0.25000000
   0.75000000  0.25000000  0.50000000
   0.75000000  0.25000000  0.75000000
   0.75000000  0.50000000  0.00000000
   0.75000000  0.50000000  0.25000000
   0.75000000  0.50000000  0.50000000
   0.75000000  0.50000000  0.75000000
   0.75000000  0.75000000  0.00000000
   0.75000000  0.75000000  0.25000000
   0.75000000  0.75000000  0.50000000
   0.75000000  0.75000000  0.75000000
 
 position of ions in cartesian coordinates  (Angst):
   0.00000000  0.00000000  0.00000000
   1.78893750  1.78893750  0.00000000
   3.57787500  3.57787500  0.00000000
   5.36681250  5.36681250  0.00000000
   1.78893750  0.00000000  1.78893750
   3.57787500  1.78893750  1.78893750
   5.36681250  3.57787500  1.78893750
   7.15575000  5.36681250  1.78893750
   3.57787500  0.00000000  3.57787500
   5.36681250  1.78893750  3.57787500
   7.15575000  3.57787500  3.57787500
   8.94468750  5.36681250  3.57787500
   5.36681250  0.00000000  5.36681250
   7.15575000  1.78893750  5.36681250
   8.94468750  3.57787500  5.36681250
  10.73362500  5.36681250  5.36681250
   0.00000000  1.78893750  1.78893750
   1.78893750  3.57787500  1.78893750
   3.57787500  5.36681250  1.78893750
   5.36681250  7.15575000  1.78893750
   1.78893750  1.78893750  3.57787500
   3.57787500  3.57787500  3.57787500
   5.36681250  5.36681250  3.57787500
   7.15575000  7.15575000  3.57787500
   3.57787500  1.78893750  5.36681250
   5.36681250  3.57787500  5.36681250
   7.15575000  5.36681250  5.36681250
   8.94468750  7.15575000  5.36681250
   5.36681250  1.78893750  7.15575000
   7.15575000  3.57787500  7.15575000
   8.94468750  5.36681250  7.15575000
  10.73362500  7.15575000  7.15575000
   0.00000000  3.57787500  3.57787500
   1.78893750  5.36681250  3.57787500
   3.57787500  7.15575000  3.57787500
   5.36681250  8.94468750  3.57787500
   1.78893750  3.57787500  5.36681250
   3.57787500  5.36681250  5.36681250
   5.36681250  7.15575000  5.36681250
   7.15575000  8.94468750  5.36681250
   3.57787500  3.57787500  7.15575000
   5.36681250  5.36681250  7.15575000
   7.15575000  7.15575000  7.15575000
   8.94468750  8.94468750  7.15575000
   5.36681250  3.57787500  8.94468750
   7.15575000  5.36681250  8.94468750
   8.94468750  7.15575000  8.94468750
  10.73362500  8.94468750  8.94468750
   0.00000000  5.36681250  5.36681250
   1.78893750  7.15575000  5.36681250
   3.57787500  8.94468750  5.36681250
   5.36681250 10.73362500  5.36681250
   1.78893750  5.36681250  7.15575000
   3.57787500  7.15575000  7.15575000
   5.36681250  8.94468750  7.15575000
   7.15575000 10.73362500  7.15575000
   3.57787500  5.36681250  8.94468750
   5.36681250  7.15575000  8.94468750
   7.15575000  8.94468750  8.94468750
   8.94468750 10.73362500  8.94468750
   5.36681250  5.36681250 10.73362500
   7.15575000  7.15575000 10.73362500
   8.94468750  8.94468750 10.73362500
  10.73362500 10.73362500 10.73362500
 


--------------------------------------------------------------------------------------------------------


 k-point  1 :   0.0000 0.0000 0.0000  plane waves:   16361
 k-point  2 :   0.3333 0.0000 0.0000  plane waves:   16382
 k-point  3 :   0.3333 0.3333 0.0000  plane waves:   16409
 k-point  4 :  -0.3333 0.3333 0.0000  plane waves:   16442

 maximum and minimum number of plane-waves per node :     16442    16361

 maximum number of plane-waves:     16442
 maximum index in each direction: 
   IXMAX=   18   IYMAX=   17   IZMAX=   17
   IXMIN=  -18   IYMIN=  -18   IZMIN=  -17

 WARNING: aliasing errors must be expected set NGX to  74 to avoid them
 NGY is ok and might be reduce to  72
 NGZ is ok and might be reduce to  70
 aliasing errors are usually negligible using standard VASP settings
 and one can safely disregard these warnings

 serial   3D FFT for wavefunctions
 parallel 3D FFT for charge:
    minimum data exchange during FFTs selected (reduces bandwidth)


 total amount of memory used by VASP on root node   295695. kBytes
========================================================================

   base      :      30000. kBytes
   nonl-proj :      26316. kBytes
   fftplans  :       9134. kBytes
   grid      :      45779. kBytes
   one-center:       1990. kBytes
   wavefun   :     182476. kBytes
 
     INWAV:  cpu time    0.0010: real time    0.0016
 Broyden mixing: mesh for mixing (old mesh)
   NGX = 35   NGY = 35   NGZ = 35
  (NGX  =120   NGY  =120   NGZ  =120)
  gives a total of  42875 points

 initial charge density was supplied:
 charge density of overlapping atoms calculated
 number of electron    1024.0000000 magnetization      64.0000000
 keeping initial charge density in first step


--------------------------------------------------------------------------------------------------------


 Maximum index for augmentation-charges          829 (set IRDMAX)


--------------------------------------------------------------------------------------------------------


 First call to EWALD:  gamma=   0.197
 Maximum number of real-space cells 3x 3x 3
 Maximum number of reciprocal cells 3x 3x 3

 FEWALD executed in parallel
    FEWALD:  cpu time    0.0050: real time    0.0122


----------------------------------------- Iteration    1(   1)  ---------------------------------------


    POTLOK:  cpu time    0.2890: real time    0.5943
    SETDIJ:  cpu time    0.0470: real time    0.1070
     EDDAV:  cpu time  135.8074: real time  271.0645
       DOS:  cpu time    0.2370: real time    0.4804
    --------------------------------------------
      LOOP:  cpu time  136.3803: real time  272.2483

 eigenvalue-minimisations  : 11616
 total energy-change (2. order) : 0.1576750E+05  (-0.6027483E+05)
 number of electron    1024.0000000 magnetization      64.0000000
 augmentation part     1024.0000000 magnetization      64.0000000

 Free energy of the ion-electron system (eV)
  ---------------------------------------------------
  alpha Z        PSCENC =      9415.99145534
  Ewald energy   TEWEN  =   -151163.59208207
  -Hartree energ DENC   =    -63206.27708342
  -exchange      EXHF   =         0.00000000
  -V(xc)+E(xc)   XCENC  =      5707.96683431
  PAW double counting   =    172361.15642774  -181272.45834873
  entropy T*S    EENTRO =        -0.01448675
  eigenvalues    EBANDS =       -91.92490187
  atomic energy  EATOM  =    224016.65216645
  Solvation  Ediel_sol  =         0.00000000
  ---------------------------------------------------
  free energy    TOTEN  =     15767.49998100 eV

  energy without entropy =    15767.51446775  energy(sigma->0) =    15767.50480992


--------------------------------------------------------------------------------------------------------




----------------------------------------- Iteration    1(   2)  ---------------------------------------


     EDDAV:  cpu time  122.7613: real time  241.6323
       DOS:  cpu time    0.0040: real time    0.0339
    --------------------------------------------
      LOOP:  cpu time  122.7873: real time  241.7087

 eigenvalue-minimisations  : 10368
 total energy-change (2. order) :-0.1467497E+05  (-0.1425264E+05)
 number of electron    1024.0000000 magnetization      64.0000000
 augmentation part     1024.0000000 magnetization      64.0000000

 Free energy of the ion-electron system (eV)
  ---------------------------------------------------
  alpha Z        PSCENC =      9415.99145534
  Ewald energy   TEWEN  =   -151163.59208207
  -Hartree energ DENC   =    -63206.27708342
  -exchange      EXHF   =         0.00000000
  -V(xc)+E(xc)   XCENC  =      5707.96683431
  PAW double counting   =    172361.15642774  -181272.45834873
  entropy T*S    EENTRO =         0.03206529
  eigenvalues    EBANDS =    -14766.93923933
  atomic energy  EATOM  =    224016.65216645
  Solvation  Ediel_sol  =         0.00000000
  ---------------------------------------------------
  free energy    TOTEN  =      1092.53219558 eV

  energy without entropy =     1092.50013029  energy(sigma->0) =     1092.52150715


--------------------------------------------------------------------------------------------------------




----------------------------------------- Iteration    1(   3)  ---------------------------------------


     EDDAV:  cpu time  117.2622: real time  233.8808
       DOS:  cpu time    0.0030: real time    0.0271
    --------------------------------------------
      LOOP:  cpu time  117.2652: real time  233.9086

 eigenvalue-minimisations  : 10520
 total energy-change (2. order) :-0.1441675E+04  (-0.1207716E+04)
 number of electron    1024.0000000 magnetization      64.0000000
 augmentation part     1024.0000000 magnetization      64.0000000

 Free energy of the ion-electron system (eV)
  ---------------------------------------------------
  alpha Z        PSCENC =      9415.99145534
  Ewald energy   TEWEN  =   -151163.59208207
  -Hartree energ DENC   =    -63206.27708342
  -exchange      EXHF   =         0.00000000
  -V(xc)+E(xc)   XCENC  =      5707.96683431
  PAW double counting   =    172361.15642774  -181272.45834873
  entropy T*S    EENTRO =         0.16712848
  eigenvalues    EBANDS =    -16208.74918295
  atomic energy  EATOM  =    224016.65216645
  Solvation  Ediel_sol  =         0.00000000
  ---------------------------------------------------
  free energy    TOTEN  =      -349.14268485 eV

  energy without entropy =     -349.30981333  energy(sigma->0) =     -349.19839434


--------------------------------------------------------------------------------------------------------




----------------------------------------- Iteration    1(   4)  ---------------------------------------


     EDDAV:  cpu time  136.1183: real time  267.6711
       DOS:  cpu time    0.0040: real time    0.0406
    --------------------------------------------
      LOOP:  cpu time  136.1233: real time  267.7148

 eigenvalue-minimisations  : 11088
 total energy-change (2. order) :-0.8188837E+02  (-0.7948366E+02)
 number of electron    1024.0000000 magnetization      64.0000000
 augmentation part     1024.0000000 magnetization      64.0000000

 Free energy of the ion-electron system (eV)
  ---------------------------------------------------
  alpha Z        PSCENC =      9415.99145534
  Ewald energy   TEWEN  =   -151163.59208207
  -Hartree energ DENC   =    -63206.27708342
  -exchange      EXHF   =         0.00000000
  -V(xc)+E(xc)   XCENC  =      5707.96683431
  PAW double counting   =    172361.15642774  -181272.45834873
  entropy T*S    EENTRO =         0.17751768
  eigenvalues    EBANDS =    -16290.64794537
  atomic energy  EATOM  =    224016.65216645
  Solvation  Ediel_sol  =         0.00000000
  ---------------------------------------------------
  free energy    TOTEN  =      -431.03105807 eV

  energy without entropy =     -431.20857574  energy(sigma->0) =     -431.09023063


--------------------------------------------------------------------------------------------------------




----------------------------------------- Iteration    1(   5)  ---------------------------------------


     EDDAV:  cpu time  122.1984: real time  243.7421
       DOS:  cpu time    0.0040: real time    0.0314
    CHARGE:  cpu time    4.9972: real time    9.9645
    MIXING:  cpu time    0.0060: real time    0.0239
    --------------------------------------------
      LOOP:  cpu time  127.2067: real time  253.7627

 eigenvalue-minimisations  : 11056
 total energy-change (2. order) :-0.1372046E+01  (-0.1370171E+01)
 number of electron    1024.0000656 magnetization      57.9947562
 augmentation part      573.2658760 magnetization      46.4454385

 Broyden mixing:
  rms(total) = 0.67804E+01    rms(broyden)= 0.67782E+01
  rms(prec ) = 0.92072E+01
  weight for this iteration     100.00

 Free energy of the ion-electron system (eV)
  ---------------------------------------------------
  alpha Z        PSCENC =      9415.99145534
  Ewald energy   TEWEN  =   -151163.59208207
  -Hartree energ DENC   =    -63206.27708342
  -exchange      EXHF   =         0.00000000
  -V(xc)+E(xc)   XCENC  =      5707.96683431
  PAW double counting   =    172361.15642774  -181272.45834873
  entropy T*S    EENTRO =         0.17732456
  eigenvalues    EBANDS =    -16292.01979857
  atomic energy  EATOM  =    224016.65216645
  Solvation  Ediel_sol  =         0.00000000
  ---------------------------------------------------
  free energy    TOTEN  =      -432.40310438 eV

  energy without entropy =     -432.58042894  energy(sigma->0) =     -432.46221257


--------------------------------------------------------------------------------------------------------




----------------------------------------- Iteration    1(   6)  ---------------------------------------


    POTLOK:  cpu time    0.2710: real time    0.5315
    SETDIJ:  cpu time    0.0480: real time    0.1106
     EDDAV:  cpu time  135.6094: real time  266.8852
       DOS:  cpu time    0.0040: real time    0.0314
    CHARGE:  cpu time    4.7153: real time    9.4013
    MIXING:  cpu time    0.0080: real time    0.0244
    --------------------------------------------
      LOOP:  cpu time  140.6566: real time  276.9853

 eigenvalue-minimisations  : 10912
 total energy-change (2. order) : 0.3156979E+02  (-0.6207138E+02)
 number of electron    1024.0000694 magnetization      51.8456245
 augmentation part      631.0568455 magnetization      45.9771457

 Broyden mixing:
  rms(total) = 0.51322E+01    rms(broyden)= 0.51317E+01
  rms(prec ) = 0.64470E+01
  weight for this iteration     100.00

 eigenvalues of (default mixing * dielectric matrix)
  average eigenvalue GAMMA=   0.5522
  0.5522

 Free energy of the ion-electron system (eV)
  ---------------------------------------------------
  alpha Z        PSCENC =      9415.99145534
  Ewald energy   TEWEN  =   -151163.59208207
  -Hartree energ DENC   =    -59958.84871900
  -exchange      EXHF   =         0.00000000
  -V(xc)+E(xc)   XCENC  =      5583.80807174
  PAW double counting   =    167696.40512220  -176290.80679617
  entropy T*S    EENTRO =        -0.39111822
  eigenvalues    EBANDS =    -19700.05141905
  atomic energy  EATOM  =    224016.65216645
  Solvation  Ediel_sol  =         0.00000000
  ---------------------------------------------------
  free energy    TOTEN  =      -400.83331878 eV

  energy without entropy =     -400.44220055  energy(sigma->0) =     -400.70294604


--------------------------------------------------------------------------------------------------------




----------------------------------------- Iteration    1(   7)  ---------------------------------------


    POTLOK:  cpu time    0.2740: real time    0.5329
    SETDIJ:  cpu time    0.0470: real time    0.1136
     EDDAV:  cpu time  120.5237: real time  240.4092
       DOS:  cpu time    0.0030: real time    0.0314
    CHARGE:  cpu time    4.8543: real time    9.6760
    MIXING:  cpu time    0.0080: real time    0.0244
    --------------------------------------------
      LOOP:  cpu time  125.7099: real time  250.7889

 eigenvalue-minimisations  : 10808
 total energy-change (2. order) : 0.3133137E+02  (-0.1262608E+02)
 number of electron    1024.0000679 magnetization      46.9877318
 augmentation part      606.2378397 magnetization      38.6214396

 Broyden mixing:
  rms(total) = 0.60778E+00    rms(broyden)= 0.60736E+00
  rms(prec ) = 0.72977E+00
  weight for this iteration     100.00

 eigenvalues of (default mixing * dielectric matrix)
  average eigenvalue GAMMA=   0.7442
  0.9123  0.5761

 Free energy of the ion-electron system (eV)
  ---------------------------------------------------
  alpha Z        PSCENC =      9415.99145534
  Ewald energy   TEWEN  =   -151163.59208207
  -Hartree energ DENC   =    -61144.34130247
  -exchange      EXHF   =         0.00000000
  -V(xc)+E(xc)   XCENC  =      5628.47121084
  PAW double counting   =    170220.72663789  -179100.77500419
  entropy T*S    EENTRO =        -0.02653266
  eigenvalues    EBANDS =    -18242.60849704
  atomic energy  EATOM  =    224016.65216645
  Solvation  Ediel_sol  =         0.00000000
  ---------------------------------------------------
  free energy    TOTEN  =      -369.50194791 eV

  energy without entropy =     -369.47541525  energy(sigma->0) =     -369.49310369


--------------------------------------------------------------------------------------------------------




----------------------------------------- Iteration    1(   8)  ---------------------------------------


    POTLOK:  cpu time    0.2710: real time    0.5269
    SETDIJ:  cpu time    0.0480: real time    0.1157
     EDDAV:  cpu time  138.4679: real time 2471.7846
       DOS:  cpu time    0.0020: real time    0.0023
    CHARGE:  cpu time    4.8853: real time    9.3808
    MIXING:  cpu time    0.0100: real time    0.0279
    --------------------------------------------
      LOOP:  cpu time  143.6842: real time 2481.8394

 eigenvalue-minimisations  : 11072
 total energy-change (2. order) :-0.3755143E-01  (-0.1347732E+00)
 number of electron    1024.0000678 magnetization      44.0245672
 augmentation part      605.8723521 magnetization      36.9708774

 Broyden mixing:
  rms(total) = 0.30853E+00    rms(broyden)= 0.30849E+00
  rms(prec ) = 0.40986E+00
  weight for this iteration     100.00

 eigenvalues of (default mixing * dielectric matrix)
  average eigenvalue GAMMA=   1.1311
  0.5892  0.8762  1.9280

 Free energy of the ion-electron system (eV)
  ---------------------------------------------------
  alpha Z        PSCENC =      9415.99145534
  Ewald energy   TEWEN  =   -151163.59208207
  -Hartree energ DENC   =    -61018.08049964
  -exchange      EXHF   =         0.00000000
  -V(xc)+E(xc)   XCENC  =      5624.74342078
  PAW double counting   =    170752.92686986  -179728.68813384
  entropy T*S    EENTRO =        -0.02435554
  eigenvalues    EBANDS =    -18269.46834068
  atomic energy  EATOM  =    224016.65216645
  Solvation  Ediel_sol  =         0.00000000
  ---------------------------------------------------
  free energy    TOTEN  =      -369.53949934 eV

  energy without entropy =     -369.51514380  energy(sigma->0) =     -369.53138082


--------------------------------------------------------------------------------------------------------




----------------------------------------- Iteration    1(   9)  ---------------------------------------


    POTLOK:  cpu time    0.2740: real time    0.5380
    SETDIJ:  cpu time    0.0480: real time    0.1133
     EDDAV:  cpu time  126.9027: real time  253.2854
       DOS:  cpu time    0.0030: real time    0.0335
    CHARGE:  cpu time    4.6693: real time    9.3061
    MIXING:  cpu time    0.0090: real time    0.0254
    --------------------------------------------
      LOOP:  cpu time  131.9059: real time  263.3027

 eigenvalue-minimisations  : 11608
 total energy-change (2. order) : 0.1482407E+00  (-0.2461765E-01)
 number of electron    1024.0000678 magnetization      44.2699870
 augmentation part      606.6593482 magnetization      38.0708082

 Broyden mixing:
  rms(total) = 0.79135E-01    rms(broyden)= 0.79120E-01
  rms(prec ) = 0.81736E-01
  weight for this iteration     100.00

 eigenvalues of (default mixing * dielectric matrix)
  average eigenvalue GAMMA=   1.0868
  2.1951  0.9293  0.6064  0.6165

 Free energy of the ion-electron system (eV)
  ---------------------------------------------------
  alpha Z        PSCENC =      9415.99145534
  Ewald energy   TEWEN  =   -151163.59208207
  -Hartree energ DENC   =    -60864.63089235
  -exchange      EXHF   =         0.00000000
  -V(xc)+E(xc)   XCENC  =      5619.85289513
  PAW double counting   =    171192.50399924  -180241.27433962
  entropy T*S    EENTRO =        -0.03518682
  eigenvalues    EBANDS =    -18344.85927393
  atomic energy  EATOM  =    224016.65216645
  Solvation  Ediel_sol  =         0.00000000
  ---------------------------------------------------
  free energy    TOTEN  =      -369.39125862 eV

  energy without entropy =     -369.35607180  energy(sigma->0) =     -369.37952968


--------------------------------------------------------------------------------------------------------




----------------------------------------- Iteration    1(  10)  ---------------------------------------


    POTLOK:  cpu time    0.2750: real time    0.5282
    SETDIJ:  cpu time    0.0480: real time    0.1081
     EDDAV:  cpu time  141.0216: real time  277.8259
       DOS:  cpu time    0.0040: real time    0.0342
    CHARGE:  cpu time    4.7473: real time    9.4571
    MIXING:  cpu time    0.0090: real time    0.0301
    --------------------------------------------
      LOOP:  cpu time  146.1048: real time  287.9944

 eigenvalue-minimisations  : 11728
 total energy-change (2. order) :-0.5962295E-02  (-0.1431181E-02)
 number of electron    1024.0000678 magnetization      44.8651481
 augmentation part      606.6480515 magnetization      38.5912101

 Broyden mixing:
  rms(total) = 0.33930E-01    rms(broyden)= 0.33925E-01
  rms(prec ) = 0.35124E-01
  weight for this iteration     100.00

 eigenvalues of (default mixing * dielectric matrix)
  average eigenvalue GAMMA=   1.2364
  2.3113  1.6724  0.9880  0.6052  0.6052

 Free energy of the ion-electron system (eV)
  ---------------------------------------------------
  alpha Z        PSCENC =      9415.99145534
  Ewald energy   TEWEN  =   -151163.59208207
  -Hartree energ DENC   =    -60856.78600135
  -exchange      EXHF   =         0.00000000
  -V(xc)+E(xc)   XCENC  =      5619.64782129
  PAW double counting   =    171278.36652515  -180333.02587035
  entropy T*S    EENTRO =        -0.03469259
  eigenvalues    EBANDS =    -18346.61654280
  atomic energy  EATOM  =    224016.65216645
  Solvation  Ediel_sol  =         0.00000000
  ---------------------------------------------------
  free energy    TOTEN  =      -369.39722092 eV

  energy without entropy =     -369.36252833  energy(sigma->0) =     -369.38565672


--------------------------------------------------------------------------------------------------------




----------------------------------------- Iteration    1(  11)  ---------------------------------------


    POTLOK:  cpu time    0.2690: real time    0.5221
    SETDIJ:  cpu time    0.0480: real time    0.1056
     EDDAV:  cpu time  128.9164: real time  257.2232
       DOS:  cpu time    0.0060: real time    0.0063
    CHARGE:  cpu time    7.1859: real time   14.3659
    MIXING:  cpu time    0.1380: real time    0.2736
    --------------------------------------------
      LOOP:  cpu time  136.5642: real time  272.5046

 eigenvalue-minimisations  : 11048
 total energy-change (2. order) :-0.4096217E-02  (-0.7145317E-03)
 number of electron    1024.0000678 magnetization      44.8658486
 augmentation part      606.5672079 magnetization      38.4297491

 Broyden mixing:
  rms(total) = 0.10959E-01    rms(broyden)= 0.10953E-01
  rms(prec ) = 0.13884E-01
  weight for this iteration     100.00

 eigenvalues of (default mixing * dielectric matrix)
  average eigenvalue GAMMA=   1.1777
  2.3890  1.7367  1.0022  0.7061  0.5869  0.6452

 Free energy of the ion-electron system (eV)
  ---------------------------------------------------
  alpha Z        PSCENC =      9415.99145534
  Ewald energy   TEWEN  =   -151163.59208207
  -Hartree energ DENC   =    -60858.41871187
  -exchange      EXHF   =         0.00000000
  -V(xc)+E(xc)   XCENC  =      5619.69410463
  PAW double counting   =    171385.90936905  -180442.69354198
  entropy T*S    EENTRO =        -0.03391207
  eigenvalues    EBANDS =    -18342.91016462
  atomic energy  EATOM  =    224016.65216645
  Solvation  Ediel_sol  =         0.00000000
  ---------------------------------------------------
  free energy    TOTEN  =      -369.40131713 eV

  energy without entropy =     -369.36740507  energy(sigma->0) =     -369.39001311


--------------------------------------------------------------------------------------------------------




----------------------------------------- Iteration    1(  12)  ---------------------------------------


    POTLOK:  cpu time    0.4439: real time    0.8987
    SETDIJ:  cpu time    0.2100: real time    0.4221
     EDDAV:  cpu time  122.9733: real time  241.4519
       DOS:  cpu time    0.0040: real time    0.0341
    CHARGE:  cpu time    4.7523: real time    9.4631
    MIXING:  cpu time    0.0100: real time    0.0296
    --------------------------------------------
      LOOP:  cpu time  128.4145: real time  252.3550

 eigenvalue-minimisations  : 10840
 total energy-change (2. order) :-0.3188598E-04  (-0.7607744E-04)
 number of electron    1024.0000678 magnetization      44.8556356
 augmentation part      606.6140208 magnetization      38.4172578

 Broyden mixing:
  rms(total) = 0.25889E-02    rms(broyden)= 0.25839E-02
  rms(prec ) = 0.27373E-02
  weight for this iteration     100.00

 eigenvalues of (default mixing * dielectric matrix)
  average eigenvalue GAMMA=   1.1822
  2.4295  1.7149  1.2625  0.9352  0.5896  0.6277  0.7161

 Free energy of the ion-electron system (eV)
  ---------------------------------------------------
  alpha Z        PSCENC =      9415.99145534
  Ewald energy   TEWEN  =   -151163.59208207
  -Hartree energ DENC   =    -60855.45404799
  -exchange      EXHF   =         0.00000000
  -V(xc)+E(xc)   XCENC  =      5619.57962750
  PAW double counting   =    171402.44345966  -180459.09783401
  entropy T*S    EENTRO =        -0.03531910
  eigenvalues    EBANDS =    -18345.88877481
  atomic energy  EATOM  =    224016.65216645
  Solvation  Ediel_sol  =         0.00000000
  ---------------------------------------------------
  free energy    TOTEN  =      -369.40134902 eV

  energy without entropy =     -369.36602992  energy(sigma->0) =     -369.38957599


--------------------------------------------------------------------------------------------------------




----------------------------------------- Iteration    1(  13)  ---------------------------------------


    POTLOK:  cpu time    0.2750: real time    0.5327
    SETDIJ:  cpu time    0.0480: real time    0.1136
     EDDAV:  cpu time  133.2267: real time  265.8232
       DOS:  cpu time    0.0050: real time    0.0156
    CHARGE:  cpu time    4.7373: real time    8.9682
    MIXING:  cpu time    0.0110: real time    0.0239
    --------------------------------------------
      LOOP:  cpu time  138.3030: real time  275.4853

 eigenvalue-minimisations  : 10768
 total energy-change (2. order) :-0.7811672E-05  (-0.3659153E-05)
 number of electron    1024.0000678 magnetization      44.8506766
 augmentation part      606.6235096 magnetization      38.4125054

 Broyden mixing:
  rms(total) = 0.20194E-02    rms(broyden)= 0.20192E-02
  rms(prec ) = 0.26590E-02
  weight for this iteration     100.00

 eigenvalues of (default mixing * dielectric matrix)
  average eigenvalue GAMMA=   1.2298
  2.4370  1.8101  1.8101  1.0210  0.5933  0.6183  0.7746  0.7746

 Free energy of the ion-electron system (eV)
  ---------------------------------------------------
  alpha Z        PSCENC =      9415.99145534
  Ewald energy   TEWEN  =   -151163.59208207
  -Hartree energ DENC   =    -60855.23401410
  -exchange      EXHF   =         0.00000000
  -V(xc)+E(xc)   XCENC  =      5619.56975925
  PAW double counting   =    171413.02209609  -180469.31563121
  entropy T*S    EENTRO =        -0.03558513
  eigenvalues    EBANDS =    -18346.45952146
  atomic energy  EATOM  =    224016.65216645
  Solvation  Ediel_sol  =         0.00000000
  ---------------------------------------------------
  free energy    TOTEN  =      -369.40135683 eV

  energy without entropy =     -369.36577170  energy(sigma->0) =     -369.38949512


--------------------------------------------------------------------------------------------------------




----------------------------------------- Iteration    1(  14)  ---------------------------------------


    POTLOK:  cpu time    0.2680: real time    0.5337
    SETDIJ:  cpu time    0.0480: real time    0.0978
     EDDAV:  cpu time  107.4257: real time  210.6870
       DOS:  cpu time    0.0040: real time    0.0341
    CHARGE:  cpu time    4.7023: real time    9.3698
    MIXING:  cpu time    0.0120: real time    0.0319
    --------------------------------------------
      LOOP:  cpu time  112.4599: real time  220.7553

 eigenvalue-minimisations  :  9168
 total energy-change (2. order) : 0.2082498E-04  (-0.8977244E-06)
 number of electron    1024.0000678 magnetization      44.8505217
 augmentation part      606.6183248 magnetization      38.4127368

 Broyden mixing:
  rms(total) = 0.64783E-03    rms(broyden)= 0.64777E-03
  rms(prec ) = 0.82896E-03
  weight for this iteration     100.00

 eigenvalues of (default mixing * dielectric matrix)
  average eigenvalue GAMMA=   1.2654
  2.5342  2.4414  1.7285  1.1079  0.8507  0.8507  0.5915  0.6239  0.6594

 Free energy of the ion-electron system (eV)
  ---------------------------------------------------
  alpha Z        PSCENC =      9415.99145534
  Ewald energy   TEWEN  =   -151163.59208207
  -Hartree energ DENC   =    -60855.89701245
  -exchange      EXHF   =         0.00000000
  -V(xc)+E(xc)   XCENC  =      5619.59419549
  PAW double counting   =    171422.57128628  -180478.54837969
  entropy T*S    EENTRO =        -0.03555304
  eigenvalues    EBANDS =    -18346.13741232
  atomic energy  EATOM  =    224016.65216645
  Solvation  Ediel_sol  =         0.00000000
  ---------------------------------------------------
  free energy    TOTEN  =      -369.40133601 eV

  energy without entropy =     -369.36578297  energy(sigma->0) =     -369.38948499


--------------------------------------------------------------------------------------------------------




----------------------------------------- Iteration    1(  15)  ---------------------------------------


    POTLOK:  cpu time    0.2700: real time    0.5185
    SETDIJ:  cpu time    0.0470: real time    0.1110
     EDDAV:  cpu time   76.7343: real time  153.1473
       DOS:  cpu time    0.0040: real time    0.0306
    CHARGE:  cpu time    4.7393: real time    9.4428
    MIXING:  cpu time    0.0110: real time    0.0329
    --------------------------------------------
      LOOP:  cpu time   81.8056: real time  163.2919

 eigenvalue-minimisations  :  5632
 total energy-change (2. order) : 0.6802875E-05  (-0.1482897E-06)
 number of electron    1024.0000678 magnetization      44.8511357
 augmentation part      606.6158119 magnetization      38.4133640

 Broyden mixing:
  rms(total) = 0.12727E-03    rms(broyden)= 0.12711E-03
  rms(prec ) = 0.12831E-03
  weight for this iteration     100.00

 eigenvalues of (default mixing * dielectric matrix)
  average eigenvalue GAMMA=   1.2416
  2.6281  2.4398  1.6921  1.2304  0.9050  0.9050  0.7613  0.5915  0.6235  0.6392

 Free energy of the ion-electron system (eV)
  ---------------------------------------------------
  alpha Z        PSCENC =      9415.99145534
  Ewald energy   TEWEN  =   -151163.59208207
  -Hartree energ DENC   =    -60856.14479424
  -exchange      EXHF   =         0.00000000
  -V(xc)+E(xc)   XCENC  =      5619.60355179
  PAW double counting   =    171425.21786263  -180481.10615480
  entropy T*S    EENTRO =        -0.03549295
  eigenvalues    EBANDS =    -18345.98784137
  atomic energy  EATOM  =    224016.65216645
  Solvation  Ediel_sol  =         0.00000000
  ---------------------------------------------------
  free energy    TOTEN  =      -369.40132920 eV

  energy without entropy =     -369.36583626  energy(sigma->0) =     -369.38949822


--------------------------------------------------------------------------------------------------------




----------------------------------------- Iteration    1(  16)  ---------------------------------------


    POTLOK:  cpu time    0.2750: real time    0.5341
    SETDIJ:  cpu time    0.0470: real time    0.1160
     EDDAV:  cpu time   92.4050: real time  180.8052
       DOS:  cpu time    0.0030: real time    0.0309
    --------------------------------------------
      LOOP:  cpu time   92.7309: real time  181.4916

 eigenvalue-minimisations  :  5464
 total energy-change (2. order) :-0.6984919E-07  (-0.2127155E-07)
 number of electron    1024.0000678 magnetization      44.8511357
 augmentation part      606.6158119 magnetization      38.4133640

 Free energy of the ion-electron system (eV)
  ---------------------------------------------------
  alpha Z        PSCENC =      9415.99145534
  Ewald energy   TEWEN  =   -151163.59208207
  -Hartree energ DENC   =    -60856.14922175
  -exchange      EXHF   =         0.00000000
  -V(xc)+E(xc)   XCENC  =      5619.60395257
  PAW double counting   =    171425.13299102  -180481.01863330
  entropy T*S    EENTRO =        -0.03547748
  eigenvalues    EBANDS =    -18345.98648006
  atomic energy  EATOM  =    224016.65216645
  Solvation  Ediel_sol  =         0.00000000
  ---------------------------------------------------
  free energy    TOTEN  =      -369.40132927 eV

  energy without entropy =     -369.36585180  energy(sigma->0) =     -369.38950345


--------------------------------------------------------------------------------------------------------




 average (electrostatic) potential at core
  the test charge radii are     0.8614
  (the norm of the test charge is              1.0000)
       1 -79.9237       2 -79.9237       3 -79.9237       4 -79.9237       5 -79.9237
       6 -79.9237       7 -79.9237       8 -79.9237       9 -79.9237      10 -79.9237
      11 -79.9237      12 -79.9237      13 -79.9237      14 -79.9237      15 -79.9237
      16 -79.9237      17 -79.9237      18 -79.9237      19 -79.9237      20 -79.9237
      21 -79.9237      22 -79.9237      23 -79.9237      24 -79.9237      25 -79.9237
      26 -79.9237      27 -79.9237      28 -79.9237      29 -79.9237      30 -79.9237
      31 -79.9237      32 -79.9237      33 -79.9237      34 -79.9237      35 -79.9237
      36 -79.9237      37 -79.9237      38 -79.9237      39 -79.9237      40 -79.9237
      41 -79.9237      42 -79.9237      43 -79.9237      44 -79.9237      45 -79.9237
      46 -79.9237      47 -79.9237      48 -79.9237      49 -79.9237      50 -79.9237
      51 -79.9237      52 -79.9237      53 -79.9237      54 -79.9237      55 -79.9237
      56 -79.9237      57 -79.9237      58 -79.9237      59 -79.9237      60 -79.9237
      61 -79.9237      62 -79.9237      63 -79.9237      64 -79.9237
 
 
 
 E-fermi :   7.2663     XC(G=0): -13.4610     alpha+bet :-14.1406


 spin component 1

 k-point     1 :       0.0000    0.0000    0.0000
  band No.  band energies     occupation 
      1     -56.7441      1.00000
      2     -56.7440      1.00000
      3     -56.7440      1.00000
      4     -56.7440      1.00000
      5     -56.7349      1.00000
      6     -56.7349      1.00000
      7     -56.7349      1.00000
      8     -56.7141      1.00000
      9     -56.7141      1.00000
     10     -56.7141      1.00000
     11     -56.7141      1.00000
     12     -56.7141      1.00000
     13     -56.7141      1.00000
     14     -56.7141      1.00000
     15     -56.7141      1.00000
     16     -56.7141      1.00000
     17     -56.7141      1.00000
     18     -56.7141      1.00000
     19     -56.7141      1.00000
     20     -56.7141      1.00000
     21     -56.7141      1.00000
     22     -56.7141      1.00000
     23     -56.7141      1.00000
     24     -56.7141      1.00000
     25     -56.7141      1.00000
     26     -56.7141      1.00000
     27     -56.7141      1.00000
     28     -56.7141      1.00000
     29     -56.7141      1.00000
     30     -56.7141      1.00000
     31     -56.7141      1.00000
     32     -56.6935      1.00000
     33     -56.6935      1.00000
     34     -56.6935      1.00000
     35     -56.6935      1.00000
     36     -56.6935      1.00000
     37     -56.6935      1.00000
     38     -56.6934      1.00000
     39     -56.6934      1.00000
     40     -56.6934      1.00000
     41     -56.6934      1.00000
     42     -56.6934      1.00000
     43     -56.6934      1.00000
     44     -56.6840      1.00000
     45     -56.6840      1.00000
     46     -56.6840      1.00000
     47     -56.6840      1.00000
     48     -56.6840      1.00000
     49     -56.6840      1.00000
     50     -56.6839      1.00000
     51     -56.6839      1.00000
     52     -56.6839      1.00000
     53     -56.6839      1.00000
     54     -56.6839      1.00000
     55     -56.6839      1.00000
     56     -56.6555      1.00000
     57     -56.6555      1.00000
     58     -56.6555      1.00000
     59     -56.6555      1.00000
     60     -56.6555      1.00000
     61     -56.6555      1.00000
     62     -56.6555      1.00000
     63     -56.6555      1.00000
     64     -56.6518      1.00000
     65     -56.6518      1.00000
     66     -56.6518      1.00000
     67     -56.6518      1.00000
     68     -56.6518      1.00000
     69     -56.6518      1.00000
     70     -56.6417      1.00000
     71     -56.6417      1.00000
     72     -56.6417      1.00000
     73     -56.6417      1.00000
     74     -56.6417      1.00000
     75     -56.6417      1.00000
     76     -56.6417      1.00000
     77     -56.6417      1.00000
     78     -56.6417      1.00000
     79     -56.6417      1.00000
     80     -56.6417      1.00000
     81     -56.6417      1.00000
     82     -56.6378      1.00000
     83     -56.6378      1.00000
     84     -56.6378      1.00000
     85     -56.6378      1.00000
     86     -56.6378      1.00000
     87     -56.6378      1.00000
     88     -56.6378      1.00000
     89     -56.6378      1.00000
     90     -56.6378      1.00000
     91     -56.6378      1.00000
     92     -56.6378      1.00000
     93     -56.6378      1.00000
     94     -56.6378      1.00000
     95     -56.6378      1.00000
     96     -56.6378      1.00000
     97     -56.6378      1.00000
     98     -56.6378      1.00000
     99     -56.6378      1.00000
    100     -56.6378      1.00000
    101     -56.6378      1.00000
    102     -56.6378      1.00000
    103     -56.6378      1.00000
    104     -56.6378      1.00000
    105     -56.6378      1.00000
    106     -56.6337      1.00000
    107     -56.6337      1.00000
    108     -56.6337      1.00000
    109     -56.6337      1.00000
    110     -56.6337      1.00000
    111     -56.6337      1.00000
    112     -56.6330      1.00000
    113     -56.6330      1.00000
    114     -56.6330      1.00000
    115     -56.6330      1.00000
    116     -56.6330      1.00000
    117     -56.6330      1.00000
    118     -56.6123      1.00000
    119     -56.6123      1.00000
    120     -56.6123      1.00000
    121     -56.6123      1.00000
    122     -56.6123      1.00000
    123     -56.6123      1.00000
    124     -56.6123      1.00000
    125     -56.6123      1.00000
    126     -56.6123      1.00000
    127     -56.6123      1.00000
    128     -56.6123      1.00000
    129     -56.6123      1.00000
    130     -56.6123      1.00000
    131     -56.6123      1.00000
    132     -56.6123      1.00000
    133     -56.6123      1.00000
    134     -56.6123      1.00000
    135     -56.6123      1.00000
    136     -56.6123      1.00000
    137     -56.6123      1.00000
    138     -56.6123      1.00000
    139     -56.6123      1.00000
    140     -56.6123      1.00000
    141     -56.6123      1.00000
    142     -56.5994      1.00000
    143     -56.5994      1.00000
    144     -56.5994      1.00000
    145     -56.5994      1.00000
    146     -56.5994      1.00000
    147     -56.5994      1.00000
    148     -56.5993      1.00000
    149     -56.5993      1.00000
    150     -56.5993      1.00000
    151     -56.5993      1.00000
    152     -56.5993      1.00000
    153     -56.5993      1.00000
    154     -56.5916      1.00000
    155     -56.5916      1.00000
    156     -56.5916      1.00000
    157     -56.5916      1.00000
    158     -56.5916      1.00000
    159     -56.5916      1.00000
    160     -56.5916      1.00000
    161     -56.5916      1.00000
    162     -56.5915      1.00000
    163     -56.5915      1.00000
    164     -56.5915      1.00000
    165     -56.5915      1.00000
    166     -56.5915      1.00000
    167     -56.5915      1.00000
    168     -56.5915      1.00000
    169     -56.5915      1.00000
    170     -56.5915      1.00000
    171     -56.5915      1.00000
    172     -56.5915      1.00000
    173     -56.5915      1.00000
    174     -56.5785      1.00000
    175     -56.5785      1.00000
    176     -56.5785      1.00000
    177     -56.5785      1.00000
    178     -56.5785      1.00000
    179     -56.5785      1.00000
    180     -56.5785      1.00000
    181     -56.5785      1.00000
    182     -56.5785      1.00000
    183     -56.5785      1.00000
    184     -56.5785      1.00000
    185     -56.5785      1.00000
    186     -56.5785      1.00000
    187     -56.5785      1.00000
    188     -56.5785      1.00000
    189     -56.5785      1.00000
    190     -56.5654      1.00000
    191     -56.5653      1.00000
    192     -56.5653      1.00000
    193      -1.4602      1.00000
    194       0.6979      1.00000
    195       0.6979      1.00000
    196       0.6979      1.00000
    197       0.6979      1.00000
    198       0.6979      1.00000
    199       0.6979      1.00000
    200       0.6979      1.00000
    201       0.6979      1.00000
    202       1.3390      1.00000
    203       1.3390      1.00000
    204       1.3390      1.00000
    205       1.3390      1.00000
    206       1.3390      1.00000
    207       1.3390      1.00000
    208       2.6335      1.00000
    209       2.6336      1.00000
    210       2.6336      1.00000
    211       2.6336      1.00000
    212       2.8355      1.00000
    213       2.8355      1.00000
    214       2.8355      1.00000
    215       3.1838      1.00000
    216       3.1838      1.00000
    217       3.1838      1.00000
    218       3.1838      1.00000
    219       3.1838      1.00000
    220       3.1838      1.00000
    221       3.1839      1.00000
    222       3.1839      1.00000
    223       3.1839      1.00000
    224       3.1839      1.00000
    225       3.1839      1.00000
    226       3.1839      1.00000
    227       3.2619      1.00000
    228       3.2619      1.00000
    229       3.2619      1.00000
    230       3.3468      1.00000
    231       3.3468      1.00000
    232       3.3468      1.00000
    233       3.3468      1.00000
    234       3.3468      1.00000
    235       3.3468      1.00000
    236       3.3469      1.00000
    237       3.3469      1.00000
    238       3.3469      1.00000
    239       3.3469      1.00000
    240       3.3469      1.00000
    241       3.3469      1.00000
    242       3.3469      1.00000
    243       3.3469      1.00000
    244       3.3469      1.00000
    245       3.3469      1.00000
    246       3.3469      1.00000
    247       3.3469      1.00000
    248       3.3469      1.00000
    249       3.3469      1.00000
    250       3.3469      1.00000
    251       3.3469      1.00000
    252       3.3469      1.00000
    253       3.3469      1.00000
    254       3.6693      1.00000
    255       3.6693      1.00000
    256       3.6693      1.00000
    257       3.6693      1.00000
    258       3.6693      1.00000
    259       3.6693      1.00000
    260       3.9620      1.00000
    261       3.9620      1.00000
    262       3.9620      1.00000
    263       3.9620      1.00000
    264       3.9620      1.00000
    265       3.9620      1.00000
    266       3.9620      1.00000
    267       3.9620      1.00000
    268       3.9620      1.00000
    269       3.9620      1.00000
    270       3.9620      1.00000
    271       3.9620      1.00000
    272       3.9620      1.00000
    273       3.9620      1.00000
[...]
      3.577875  3.577875  3.577875    -0.042147    0.001765   -0.226461  
      5.366812  5.366812  3.577875     0.053218   -0.027014   -0.147358  
      7.155750  7.155750  3.577875     0.001760   -0.008628   -0.058718  
      3.577875  1.788938  5.366812    -0.053894    0.060099   -0.100497  
      5.366812  3.577875  5.366812    -0.052505    0.024667   -0.122022  
      7.155750  5.366812  5.366812    -0.065871    0.050021    0.011678  
      8.944688  7.155750  5.366812    -0.067259    0.085452    0.033203  
      5.366812  1.788938  7.155750    -0.050826    0.025895   -0.066591  
      7.155750  3.577875  7.155750    -0.158167    0.044595   -0.033519  
      8.944688  5.366812  7.155750    -0.121463    0.086995    0.033067  
     10.733625  7.155750  7.155750    -0.014122    0.068294   -0.000006  
      0.000000  3.577875  3.577875    -0.083590   -0.035852   -0.016508  
      1.788938  5.366812  3.577875    -0.032132   -0.054237   -0.105149  
      3.577875  7.155750  3.577875     0.063232   -0.083017   -0.026046  
      5.366812  8.944688  3.577875     0.011775   -0.064631    0.062595  
      1.788938  3.577875  5.366812     0.022072   -0.055780   -0.105012  
      3.577875  5.366812  5.366812     0.023461   -0.091211   -0.126537  
      5.366812  7.155750  5.366812     0.010095   -0.065858    0.007163  
      7.155750  8.944688  5.366812     0.008707   -0.030427    0.028688  
      3.577875  3.577875  7.155750     0.011714   -0.032878   -0.000573  
      5.366812  5.366812  7.155750    -0.095627   -0.014177    0.032499  
      7.155750  7.155750  7.155750    -0.058924    0.028222    0.099084  
      8.944688  8.944688  7.155750     0.048418    0.009521    0.066012  
      5.366812  3.577875  8.944688    -0.093948   -0.012950    0.087930  
      7.155750  5.366812  8.944688    -0.151220    0.022797    0.053887  
      8.944688  7.155750  8.944688    -0.005787    0.011064    0.065875  
     10.733625  8.944688  8.944688     0.051485   -0.024683    0.099918  
      0.000000  5.366812  5.366812     0.065871   -0.050021   -0.011678  
      1.788938  7.155750  5.366812     0.067259   -0.085452   -0.033203  
      3.577875  8.944688  5.366812     0.053894   -0.060099    0.100497  
      5.366812 10.733625  5.366812     0.052505   -0.024667    0.122022  
      1.788938  5.366812  7.155750     0.121463   -0.086995   -0.033067  
      3.577875  7.155750  7.155750     0.014122   -0.068294    0.000006  
      5.366812  8.944688  7.155750     0.050826   -0.025895    0.066591  
      7.155750 10.733625  7.155750     0.158167   -0.044595    0.033519  
      3.577875  5.366812  8.944688     0.002375   -0.009960    0.125969  
      5.366812  7.155750  8.944688    -0.054897    0.025787    0.091927  
      7.155750  8.944688  8.944688     0.090537    0.014053    0.103914  
      8.944688 10.733625  8.944688     0.147809   -0.021694    0.137957  
      5.366812  5.366812 10.733625    -0.053218    0.027014    0.147358  
      7.155750  7.155750 10.733625    -0.001760    0.008628    0.058718  
      8.944688  8.944688 10.733625     0.093604   -0.020151    0.137820  
     10.733625 10.733625 10.733625     0.042147   -0.001765    0.226461  
 
 190 f  =    0.000001 THz     0.000004 2PiTHz    0.000022 cm-1     0.000003 meV
             X         Y         Z           dx          dy          dz
      0.000000  0.000000  0.000000    -0.102291    0.071844    0.000048  
      1.788938  1.788938  0.000000    -0.102291    0.071844    0.000048  
      3.577875  3.577875  0.000000    -0.102291    0.071844    0.000048  
      5.366812  5.366812  0.000000    -0.102291    0.071844    0.000048  
      1.788938  0.000000  1.788938    -0.102291    0.071844    0.000048  
      3.577875  1.788938  1.788938    -0.102291    0.071844    0.000048  
      5.366812  3.577875  1.788938    -0.102291    0.071844    0.000048  
      7.155750  5.366812  1.788938    -0.102291    0.071844    0.000048  
      3.577875  0.000000  3.577875    -0.102291    0.071844    0.000048  
      5.366812  1.788938  3.577875    -0.102291    0.071844    0.000048  
      7.155750  3.577875  3.577875    -0.102291    0.071844    0.000048  
      8.944688  5.366812  3.577875    -0.102291    0.071844    0.000048  
      5.366812  0.000000  5.366812    -0.102291    0.071844    0.000048  
      7.155750  1.788938  5.366812    -0.102291    0.071844    0.000048  
      8.944688  3.577875  5.366812    -0.102291    0.071844    0.000048  
     10.733625  5.366812  5.366812    -0.102291    0.071844    0.000048  
      0.000000  1.788938  1.788938    -0.102291    0.071844    0.000048  
      1.788938  3.577875  1.788938    -0.102291    0.071844    0.000048  
      3.577875  5.366812  1.788938    -0.102291    0.071844    0.000048  
      5.366812  7.155750  1.788938    -0.102291    0.071844    0.000048  
      1.788938  1.788938  3.577875    -0.102291    0.071844    0.000048  
      3.577875  3.577875  3.577875    -0.102291    0.071844    0.000048  
      5.366812  5.366812  3.577875    -0.102291    0.071844    0.000048  
      7.155750  7.155750  3.577875    -0.102291    0.071844    0.000048  
      3.577875  1.788938  5.366812    -0.102291    0.071844    0.000048  
      5.366812  3.577875  5.366812    -0.102291    0.071844    0.000048  
      7.155750  5.366812  5.366812    -0.102291    0.071844    0.000048  
      8.944688  7.155750  5.366812    -0.102291    0.071844    0.000048  
      5.366812  1.788938  7.155750    -0.102291    0.071844    0.000048  
      7.155750  3.577875  7.155750    -0.102291    0.071844    0.000048  
      8.944688  5.366812  7.155750    -0.102291    0.071844    0.000048  
     10.733625  7.155750  7.155750    -0.102291    0.071844    0.000048  
      0.000000  3.577875  3.577875    -0.102291    0.071844    0.000048  
      1.788938  5.366812  3.577875    -0.102291    0.071844    0.000048  
      3.577875  7.155750  3.577875    -0.102291    0.071844    0.000048  
      5.366812  8.944688  3.577875    -0.102291    0.071844    0.000048  
      1.788938  3.577875  5.366812    -0.102291    0.071844    0.000048  
      3.577875  5.366812  5.366812    -0.102291    0.071844    0.000048  
      5.366812  7.155750  5.366812    -0.102291    0.071844    0.000048  
      7.155750  8.944688  5.366812    -0.102291    0.071844    0.000048  
      3.577875  3.577875  7.155750    -0.102291    0.071844    0.000048  
      5.366812  5.366812  7.155750    -0.102291    0.071844    0.000048  
      7.155750  7.155750  7.155750    -0.102291    0.071844    0.000048  
      8.944688  8.944688  7.155750    -0.102291    0.071844    0.000048  
      5.366812  3.577875  8.944688    -0.102291    0.071844    0.000048  
      7.155750  5.366812  8.944688    -0.102291    0.071844    0.000048  
      8.944688  7.155750  8.944688    -0.102291    0.071844    0.000048  
     10.733625  8.944688  8.944688    -0.102291    0.071844    0.000048  
      0.000000  5.366812  5.366812    -0.102291    0.071844    0.000048  
      1.788938  7.155750  5.366812    -0.102291    0.071844    0.000048  
      3.577875  8.944688  5.366812    -0.102291    0.071844    0.000048  
      5.366812 10.733625  5.366812    -0.102291    0.071844    0.000048  
      1.788938  5.366812  7.155750    -0.102291    0.071844    0.000048  
      3.577875  7.155750  7.155750    -0.102291    0.071844    0.000048  
      5.366812  8.944688  7.155750    -0.102291    0.071844    0.000048  
      7.155750 10.733625  7.155750    -0.102291    0.071844    0.000048  
      3.577875  5.366812  8.944688    -0.102291    0.071844    0.000048  
      5.366812  7.155750  8.944688    -0.102291    0.071844    0.000048  
      7.155750  8.944688  8.944688    -0.102291    0.071844    0.000048  
      8.944688 10.733625  8.944688    -0.102291    0.071844    0.000048  
      5.366812  5.366812 10.733625    -0.102291    0.071844    0.000048  
      7.155750  7.155750 10.733625    -0.102291    0.071844    0.000048  
      8.944688  8.944688 10.733625    -0.102291    0.071844    0.000048  
     10.733625 10.733625 10.733625    -0.102291    0.071844    0.000048  
 
 191 f  =    0.000001 THz     0.000004 2PiTHz    0.000021 cm-1     0.000003 meV
             X         Y         Z           dx          dy          dz
      0.000000  0.000000  0.000000     0.004791    0.006737    0.124726  
      1.788938  1.788938  0.000000     0.004791    0.006737    0.124726  
      3.577875  3.577875  0.000000     0.004791    0.006737    0.124726  
      5.366812  5.366812  0.000000     0.004791    0.006737    0.124726  
      1.788938  0.000000  1.788938     0.004791    0.006737    0.124726  
      3.577875  1.788938  1.788938     0.004791    0.006737    0.124726  
      5.366812  3.577875  1.788938     0.004791    0.006737    0.124726  
      7.155750  5.366812  1.788938     0.004791    0.006737    0.124726  
      3.577875  0.000000  3.577875     0.004791    0.006737    0.124726  
      5.366812  1.788938  3.577875     0.004791    0.006737    0.124726  
      7.155750  3.577875  3.577875     0.004791    0.006737    0.124726  
      8.944688  5.366812  3.577875     0.004791    0.006737    0.124726  
      5.366812  0.000000  5.366812     0.004791    0.006737    0.124726  
      7.155750  1.788938  5.366812     0.004791    0.006737    0.124726  
      8.944688  3.577875  5.366812     0.004791    0.006737    0.124726  
     10.733625  5.366812  5.366812     0.004791    0.006737    0.124726  
      0.000000  1.788938  1.788938     0.004791    0.006737    0.124726  
      1.788938  3.577875  1.788938     0.004791    0.006737    0.124726  
      3.577875  5.366812  1.788938     0.004791    0.006737    0.124726  
      5.366812  7.155750  1.788938     0.004791    0.006737    0.124726  
      1.788938  1.788938  3.577875     0.004791    0.006737    0.124726  
      3.577875  3.577875  3.577875     0.004791    0.006737    0.124726  
      5.366812  5.366812  3.577875     0.004791    0.006737    0.124726  
      7.155750  7.155750  3.577875     0.004791    0.006737    0.124726  
      3.577875  1.788938  5.366812     0.004791    0.006737    0.124726  
      5.366812  3.577875  5.366812     0.004791    0.006737    0.124726  
      7.155750  5.366812  5.366812     0.004791    0.006737    0.124726  
      8.944688  7.155750  5.366812     0.004791    0.006737    0.124726  
      5.366812  1.788938  7.155750     0.004791    0.006737    0.124726  
      7.155750  3.577875  7.155750     0.004791    0.006737    0.124726  
      8.944688  5.366812  7.155750     0.004791    0.006737    0.124726  
     10.733625  7.155750  7.155750     0.004791    0.006737    0.124726  
      0.000000  3.577875  3.577875     0.004791    0.006737    0.124726  
      1.788938  5.366812  3.577875     0.004791    0.006737    0.124726  
      3.577875  7.155750  3.577875     0.004791    0.006737    0.124726  
      5.366812  8.944688  3.577875     0.004791    0.006737    0.124726  
      1.788938  3.577875  5.366812     0.004791    0.006737    0.124726  
      3.577875  5.366812  5.366812     0.004791    0.006737    0.124726  
      5.366812  7.155750  5.366812     0.004791    0.006737    0.124726  
      7.155750  8.944688  5.366812     0.004791    0.006737    0.124726  
      3.577875  3.577875  7.155750     0.004791    0.006737    0.124726  
      5.366812  5.366812  7.155750     0.004791    0.006737    0.124726  
      7.155750  7.155750  7.155750     0.004791    0.006737    0.124726  
      8.944688  8.944688  7.155750     0.004791    0.006737    0.124726  
      5.366812  3.577875  8.944688     0.004791    0.006737    0.124726  
      7.155750  5.366812  8.944688     0.004791    0.006737    0.124726  
      8.944688  7.155750  8.944688     0.004791    0.006737    0.124726  
     10.733625  8.944688  8.944688     0.004791    0.006737    0.124726  
      0.000000  5.366812  5.366812     0.004791    0.006737    0.124726  
      1.788938  7.155750  5.366812     0.004791    0.006737    0.124726  
      3.577875  8.944688  5.366812     0.004791    0.006737    0.124726  
      5.366812 10.733625  5.366812     0.004791    0.006737    0.124726  
      1.788938  5.366812  7.155750     0.004791    0.006737    0.124726  
      3.577875  7.155750  7.155750     0.004791    0.006737    0.124726  
      5.366812  8.944688  7.155750     0.004791    0.006737    0.124726  
      7.155750 10.733625  7.155750     0.004791    0.006737    0.124726  
      3.577875  5.366812  8.944688     0.004791    0.006737    0.124726  
      5.366812  7.155750  8.944688     0.004791    0.006737    0.124726  
      7.155750  8.944688  8.944688     0.004791    0.006737    0.124726  
      8.944688 10.733625  8.944688     0.004791    0.006737    0.124726  
      5.366812  5.366812 10.733625     0.004791    0.006737    0.124726  
      7.155750  7.155750 10.733625     0.004791    0.006737    0.124726  
      8.944688  8.944688 10.733625     0.004791    0.006737    0.124726  
     10.733625 10.733625 10.733625     0.004791    0.006737    0.124726  
 
 192 f  =    0.000001 THz     0.000004 2PiTHz    0.000021 cm-1     0.000003 meV
             X         Y         Z           dx          dy          dz
      0.000000  0.000000  0.000000     0.071685    0.102069   -0.008267  
      1.788938  1.788938  0.000000     0.071685    0.102069   -0.008267  
      3.577875  3.577875  0.000000     0.071685    0.102069   -0.008267  
      5.366812  5.366812  0.000000     0.071685    0.102069   -0.008267  
      1.788938  0.000000  1.788938     0.071685    0.102069   -0.008267  
      3.577875  1.788938  1.788938     0.071685    0.102069   -0.008267  
      5.366812  3.577875  1.788938     0.071685    0.102069   -0.008267  
      7.155750  5.366812  1.788938     0.071685    0.102069   -0.008267  
      3.577875  0.000000  3.577875     0.071685    0.102069   -0.008267  
      5.366812  1.788938  3.577875     0.071685    0.102069   -0.008267  
      7.155750  3.577875  3.577875     0.071685    0.102069   -0.008267  
      8.944688  5.366812  3.577875     0.071685    0.102069   -0.008267  
      5.366812  0.000000  5.366812     0.071685    0.102069   -0.008267  
      7.155750  1.788938  5.366812     0.071685    0.102069   -0.008267  
      8.944688  3.577875  5.366812     0.071685    0.102069   -0.008267  
     10.733625  5.366812  5.366812     0.071685    0.102069   -0.008267  
      0.000000  1.788938  1.788938     0.071685    0.102069   -0.008267  
      1.788938  3.577875  1.788938     0.071685    0.102069   -0.008267  
      3.577875  5.366812  1.788938     0.071685    0.102069   -0.008267  
      5.366812  7.155750  1.788938     0.071685    0.102069   -0.008267  
      1.788938  1.788938  3.577875     0.071685    0.102069   -0.008267  
      3.577875  3.577875  3.577875     0.071685    0.102069   -0.008267  
      5.366812  5.366812  3.577875     0.071685    0.102069   -0.008267  
      7.155750  7.155750  3.577875     0.071685    0.102069   -0.008267  
      3.577875  1.788938  5.366812     0.071685    0.102069   -0.008267  
      5.366812  3.577875  5.366812     0.071685    0.102069   -0.008267  
      7.155750  5.366812  5.366812     0.071685    0.102069   -0.008267  
      8.944688  7.155750  5.366812     0.071685    0.102069   -0.008267  
      5.366812  1.788938  7.155750     0.071685    0.102069   -0.008267  
      7.155750  3.577875  7.155750     0.071685    0.102069   -0.008267  
      8.944688  5.366812  7.155750     0.071685    0.102069   -0.008267  
     10.733625  7.155750  7.155750     0.071685    0.102069   -0.008267  
      0.000000  3.577875  3.577875     0.071685    0.102069   -0.008267  
      1.788938  5.366812  3.577875     0.071685    0.102069   -0.008267  
      3.577875  7.155750  3.577875     0.071685    0.102069   -0.008267  
      5.366812  8.944688  3.577875     0.071685    0.102069   -0.008267  
      1.788938  3.577875  5.366812     0.071685    0.102069   -0.008267  
      3.577875  5.366812  5.366812     0.071685    0.102069   -0.008267  
      5.366812  7.155750  5.366812     0.071685    0.102069   -0.008267  
      7.155750  8.944688  5.366812     0.071685    0.102069   -0.008267  
      3.577875  3.577875  7.155750     0.071685    0.102069   -0.008267  
      5.366812  5.366812  7.155750     0.071685    0.102069   -0.008267  
      7.155750  7.155750  7.155750     0.071685    0.102069   -0.008267  
      8.944688  8.944688  7.155750     0.071685    0.102069   -0.008267  
      5.366812  3.577875  8.944688     0.071685    0.102069   -0.008267  
      7.155750  5.366812  8.944688     0.071685    0.102069   -0.008267  
      8.944688  7.155750  8.944688     0.071685    0.102069   -0.008267  
     10.733625  8.944688  8.944688     0.071685    0.102069   -0.008267  
      0.000000  5.366812  5.366812     0.071685    0.102069   -0.008267  
      1.788938  7.155750  5.366812     0.071685    0.102069   -0.008267  
      3.577875  8.944688  5.366812     0.071685    0.102069   -0.008267  
      5.366812 10.733625  5.366812     0.071685    0.102069   -0.008267  
      1.788938  5.366812  7.155750     0.071685    0.102069   -0.008267  
      3.577875  7.155750  7.155750     0.071685    0.102069   -0.008267  
      5.366812  8.944688  7.155750     0.071685    0.102069   -0.008267  
      7.155750 10.733625  7.155750     0.071685    0.102069   -0.008267  
      3.577875  5.366812  8.944688     0.071685    0.102069   -0.008267  
      5.366812  7.155750  8.944688     0.071685    0.102069   -0.008267  
      7.155750  8.944688  8.944688     0.071685    0.102069   -0.008267  
      8.944688 10.733625  8.944688     0.071685    0.102069   -0.008267  
      5.366812  5.366812 10.733625     0.071685    0.102069   -0.008267  
      7.155750  7.155750 10.733625     0.071685    0.102069   -0.008267  
      8.944688  8.944688 10.733625     0.071685    0.102069   -0.008267  
     10.733625 10.733625 10.733625     0.071685    0.102069   -0.008267  
 


--------------------------------------------------------------------------------------------------------



 ELASTIC MODULI IONIC CONTR (kBar)
 Direction    XX          YY          ZZ          XY          YZ          ZX
 --------------------------------------------------------------------------------
 XX           0.0000     -0.0000      0.0000      0.0000      0.0000      0.0000
 YY          -0.0000     -0.0000      0.0000      0.0000      0.0000      0.0000
 ZZ           0.0000      0.0000      0.0000     -0.0000      0.0000      0.0000
 XY          -0.0000      0.0000     -0.0000     -0.0000     -0.0000     -0.0000
 YZ           0.0000      0.0000      0.0000     -0.0000      0.0000      0.0000
 ZX           0.0000      0.0000      0.0000     -0.0000      0.0000      0.0000
 --------------------------------------------------------------------------------



--------------------------------------------------------------------------------------------------------


 writing wavefunctions
     LOOP+:  cpu time 7799.4633: real time17718.6774
    4ORBIT:  cpu time    0.0000: real time    0.0000

 total amount of memory used by VASP on root node   295695. kBytes
========================================================================

   base      :      30000. kBytes
   nonl-proj :      26316. kBytes
   fftplans  :       9134. kBytes
   grid      :      45779. kBytes
   one-center:       1990. kBytes
   wavefun   :     182476. kBytes
 
  
  
 General timing and accounting informations for this job:
 ========================================================
  
                  Total CPU time used (sec):     7822.594
                            User time (sec):     7763.537
                          System time (sec):       59.057
                         Elapsed time (sec):    17765.069
  
                   Maximum memory used (kb):     1103348.
                   Average memory used (kb):           0.
  
                          Minor page faults:       311861
                          Major page faults:            3
                 Voluntary context switches:          938
