<?xml version="1.0" encoding="ISO-8859-1"?>
<modeling>
 <generator>
  <i name="program" type="string">vasp </i>
  <i name="version" type="string">5.4.1  </i>
  <i name="subversion" type="string">05Feb16 (build Oct 12 2016 17:31:35) complex                          parallel </i>
  <i name="platform" type="string">IFC91_ompi </i>
  <i name="date" type="string">2020 09 09 </i>
  <i name="time" type="string">01:51:46 </i>
 </generator>
 <incar>
  <i type="string" name="SYSTEM"> phonon of Zr bcc - omiga</i>
  <i type="string" name="PREC">h</i>
  <i type="int" name="ISPIN">     2</i>
  <i type="int" name="IBRION">     8</i>
  <i name="EDIFF">      0.00000100</i>
  <i type="int" name="NSW">     1</i>
  <v name="MAGMOM">      1.00000000      1.00000000      1.00000000      1.00000000      1.00000000      1.00000000      1.00000000      1.00000000      1.00000000      1.00000000      1.00000000      1.00000000      1.00000000      1.00000000      1.00000000      1.00000000      1.00000000      1.00000000      1.00000000      1.00000000
      1.00000000      1.00000000      1.00000000      1.00000000      1.00000000      1.00000000      1.00000000      1.00000000      1.00000000      1.00000000      1.00000000      1.00000000      1.00000000      1.00000000      1.00000000      1.00000000      1.00000000      1.00000000      1.00000000      1.00000000
      1.00000000      1.00000000      1.00000000      1.00000000      1.00000000      1.00000000      1.00000000      1.00000000      1.00000000      1.00000000      1.00000000      1.00000000      1.00000000      1.00000000      1.00000000      1.00000000      1.00000000      1.00000000      1.00000000      1.00000000
      1.00000000      1.00000000      1.00000000      1.00000000</v>
  <i type="int" name="ISMEAR">     1</i>
  <i type="int" name="NWRITE">     0</i>
  <v type="int" name="KPOINT_BSE">    -1     0     0     0</v>
 </incar>
 <kpoints>
  <generation param="Gamma">
   <v type="int" name="divisions">       3        3        3 </v>
   <v name="usershift">      0.00000000       0.00000000       0.00000000 </v>
   <v name="genvec1">      0.33333333       0.00000000       0.00000000 </v>
   <v name="genvec2">      0.00000000       0.33333333       0.00000000 </v>
   <v name="genvec3">      0.00000000       0.00000000       0.33333333 </v>
   <v name="shift">      0.00000000       0.00000000       0.00000000 </v>
  </generation>
  <varray name="kpointlist" >
   <v>       0.00000000       0.00000000       0.00000000 </v>
   <v>       0.33333333       0.00000000       0.00000000 </v>
   <v>       0.33333333       0.33333333       0.00000000 </v>
   <v>      -0.33333333       0.33333333       0.00000000 </v>
  </varray>
  <varray name="weights" >
   <v>       0.03703704 </v>
   <v>       0.29629630 </v>
   <v>       0.22222222 </v>
   <v>       0.44444444 </v>
  </varray>
 </kpoints>
 <parameters>
  <separator name="general" >
   <i type="string" name="SYSTEM">phonon of Zr bcc - omiga</i>
   <i type="logical" name="LCOMPAT"> F  </i>
  </separator>
  <separator name="electronic" >
   <i type="string" name="PREC">h</i>
   <i name="ENMAX">    459.93125000</i>
   <i name="ENAUG">    703.44300000</i>
   <i name="EDIFF">      0.00000100</i>
   <i type="int" name="IALGO">    38</i>
   <i type="int" name="IWAVPR">    11</i>
   <i type="int" name="NBANDS">   648</i>
   <i name="NELECT">   1024.00000000</i>
   <i type="int" name="TURBO">     0</i>
   <i type="int" name="IRESTART">     0</i>
   <i type="int" name="NREBOOT">     0</i>
   <i type="int" name="NMIN">     0</i>
   <i name="EREF">      0.00000000</i>
   <separator name="electronic smearing" >
    <i type="int" name="ISMEAR">     1</i>
    <i name="SIGMA">      0.20000000</i>
    <i name="KSPACING">      0.50000000</i>
    <i type="logical" name="KGAMMA"> T  </i>
   </separator>
   <separator name="electronic projectors" >
    <i type="logical" name="LREAL"> F  </i>
    <v name="ROPT">      0.00000000</v>
    <i type="int" name="LMAXPAW">  -100</i>
    <i type="int" name="LMAXMIX">     2</i>
    <i type="logical" name="NLSPLINE"> F  </i>
   </separator>
   <separator name="electronic startup" >
    <i type="int" name="ISTART">     0</i>
    <i type="int" name="ICHARG">     2</i>
    <i type="int" name="INIWAV">     1</i>
   </separator>
   <separator name="electronic spin" >
    <i type="int" name="ISPIN">     2</i>
    <i type="logical" name="LNONCOLLINEAR"> F  </i>
    <v name="MAGMOM">      1.00000000      1.00000000      1.00000000      1.00000000      1.00000000      1.00000000      1.00000000      1.00000000      1.00000000      1.00000000      1.00000000      1.00000000      1.00000000      1.00000000      1.00000000      1.00000000      1.00000000      1.00000000      1.00000000      1.00000000
      1.00000000      1.00000000      1.00000000      1.00000000      1.00000000      1.00000000      1.00000000      1.00000000      1.00000000      1.00000000      1.00000000      1.00000000      1.00000000      1.00000000      1.00000000      1.00000000      1.00000000      1.00000000      1.00000000      1.00000000
      1.00000000      1.00000000      1.00000000      1.00000000      1.00000000      1.00000000      1.00000000      1.00000000      1.00000000      1.00000000      1.00000000      1.00000000      1.00000000      1.00000000      1.00000000      1.00000000      1.00000000      1.00000000      1.00000000      1.00000000
      1.00000000      1.00000000      1.00000000      1.00000000</v>
    <i name="NUPDOWN">     -1.00000000</i>
    <i type="logical" name="LSORBIT"> F  </i>
    <v name="SAXIS">      0.00000000      0.00000000      1.00000000</v>
    <i type="logical" name="LSPIRAL"> F  </i>
    <v name="QSPIRAL">      0.00000000      0.00000000      0.00000000</v>
    <i type="logical" name="LZEROZ"> F  </i>
   </separator>
   <separator name="electronic exchange-correlation" >
    <i type="logical" name="LASPH"> F  </i>
    <i type="logical" name="LMETAGGA"> F  </i>
   </separator>
   <separator name="electronic convergence" >
    <i type="int" name="NELM">    60</i>
    <i type="int" name="NELMDL">    -5</i>
    <i type="int" name="NELMIN">     2</i>
    <i name="ENINI">    459.93125000</i>
    <separator name="electronic convergence detail" >
     <i type="logical" name="LDIAG"> T  </i>
     <i type="logical" name="LSUBROT"> F  </i>
     <i name="WEIMIN">      0.00100000</i>
     <i name="EBREAK">      0.00000000</i>
     <i name="DEPER">      0.30000000</i>
     <i type="int" name="NRMM">     4</i>
     <i name="TIME">      0.40000000</i>
    </separator>
   </separator>
   <separator name="electronic mixer" >
    <i name="AMIX">      0.40000000</i>
    <i name="BMIX">      1.00000000</i>
    <i name="AMIN">      0.10000000</i>
    <i name="AMIX_MAG">      1.60000000</i>
    <i name="BMIX_MAG">      1.00000000</i>
    <separator name="electronic mixer details" >
     <i type="int" name="IMIX">     4</i>
     <i type="logical" name="MIXFIRST"> F  </i>
     <i type="int" name="MAXMIX">   -45</i>
     <i name="WC">    100.00000000</i>
     <i type="int" name="INIMIX">     1</i>
     <i type="int" name="MIXPRE">     1</i>
     <i type="int" name="MREMOVE">     5</i>
    </separator>
   </separator>
   <separator name="electronic dipolcorrection" >
    <i type="logical" name="LDIPOL"> F  </i>
    <i type="logical" name="LMONO"> F  </i>
    <i type="int" name="IDIPOL">     0</i>
    <i name="EPSILON">      1.00000000</i>
    <v name="DIPOL">   -100.00000000   -100.00000000   -100.00000000</v>
    <i name="EFIELD">      0.00000000</i>
   </separator>
  </separator>
  <separator name="grids" >
   <i type="int" name="NGX">    72</i>
   <i type="int" name="NGY">    72</i>
   <i type="int" name="NGZ">    72</i>
   <i type="int" name="NGXF">   120</i>
   <i type="int" name="NGYF">   120</i>
   <i type="int" name="NGZF">   120</i>
   <i type="logical" name="ADDGRID"> F  </i>
  </separator>
  <separator name="ionic" >
   <i type="int" name="NSW">     1</i>
   <i type="int" name="IBRION">     8</i>
   <i type="int" name="ISIF">     2</i>
   <i name="PSTRESS">      0.00000000</i>
   <i name="EDIFFG">      0.00001000</i>
   <i type="int" name="NFREE">     0</i>
   <i name="POTIM">      0.50000000</i>
   <i name="SMASS">     -3.00000000</i>
   <i name="SCALEE">      1.00000000</i>
  </separator>
  <separator name="ionic md" >
   <i name="TEBEG">      0.00010000</i>
   <i name="TEEND">      0.00010000</i>
   <i type="int" name="NBLOCK">     1</i>
   <i type="int" name="KBLOCK">     1</i>
   <i type="int" name="NPACO">   256</i>
   <i name="APACO">     16.00000000</i>
  </separator>
  <separator name="symmetry" >
   <i type="int" name="ISYM">     2</i>
   <i name="SYMPREC">      0.00001000</i>
  </separator>
  <separator name="dos" >
   <i type="logical" name="LORBIT"> F  </i>
   <v name="RWIGS">     -1.00000000</v>
   <i type="int" name="NEDOS">   301</i>
   <i name="EMIN">     10.00000000</i>
   <i name="EMAX">    -10.00000000</i>
   <i name="EFERMI">      0.00000000</i>
  </separator>
  <separator name="writing" >
   <i type="int" name="NWRITE">     0</i>
   <i type="logical" name="LWAVE"> T  </i>
   <i type="logical" name="LCHARG"> T  </i>
   <i type="logical" name="LPARD"> F  </i>
   <i type="logical" name="LVTOT"> F  </i>
   <i type="logical" name="LVHAR"> F  </i>
   <i type="logical" name="LELF"> F  </i>
   <i type="logical" name="LOPTICS"> F  </i>
   <v name="STM">      0.00000000      0.00000000      0.00000000      0.00000000      0.00000000      0.00000000      0.00000000</v>
  </separator>
  <separator name="performance" >
   <i type="int" name="NPAR">     8</i>
   <i type="int" name="NSIM">     4</i>
   <i type="int" name="NBLK">    -1</i>
   <i type="logical" name="LPLANE"> T  </i>
   <i type="logical" name="LSCALAPACK"> T  </i>
   <i type="logical" name="LSCAAWARE"> F  </i>
   <i type="logical" name="LSCALU"> F  </i>
   <i type="logical" name="LASYNC"> F  </i>
   <i type="logical" name="LORBITALREAL"> F  </i>
  </separator>
  <separator name="miscellaneous" >
   <i type="int" name="IDIOT">     3</i>
   <i type="logical" name="LMUSIC"> F  </i>
   <v name="POMASS">     58.69000000</v>
   <v name="DARWINR">      0.00000000</v>
   <v name="DARWINV">      1.00000000</v>
   <i type="logical" name="LCORR"> T  </i>
  </separator>
  <i type="logical" name="GGA_COMPAT"> T  </i>
  <i type="logical" name="LBERRY"> F  </i>
  <i type="int" name="ICORELEVEL">     0</i>
  <i type="logical" name="LDAU"> F  </i>
  <i type="int" name="I_CONSTRAINED_M">     0</i>
  <separator name="electronic exchange-correlation" >
   <i type="string" name="GGA">--</i>
   <i type="int" name="VOSKOWN">     0</i>
   <i type="logical" name="LHFCALC"> F  </i>
   <i type="string" name="PRECFOCK"></i>
   <i type="logical" name="LSYMGRAD"> F  </i>
   <i type="logical" name="LHFONE"> F  </i>
   <i type="logical" name="LRHFCALC"> F  </i>
   <i type="logical" name="LTHOMAS"> F  </i>
   <i type="logical" name="LMODELHF"> F  </i>
   <i name="ENCUT4O">     -1.00000000</i>
   <i type="int" name="EXXOEP">     0</i>
   <i type="int" name="FOURORBIT">     0</i>
   <i name="AEXX">      0.00000000</i>
   <i name="HFALPHA">      0.00000000</i>
   <i name="MCALPHA">      0.00000000</i>
   <i name="ALDAX">      1.00000000</i>
   <i name="AGGAX">      1.00000000</i>
   <i name="ALDAC">      1.00000000</i>
   <i name="AGGAC">      1.00000000</i>
   <i type="int" name="NKREDX">     1</i>
   <i type="int" name="NKREDY">     1</i>
   <i type="int" name="NKREDZ">     1</i>
   <i type="logical" name="SHIFTRED"> F  </i>
   <i type="logical" name="ODDONLY"> F  </i>
   <i type="logical" name="EVENONLY"> F  </i>
   <i type="int" name="LMAXFOCK">     0</i>
   <i type="int" name="NMAXFOCKAE">     0</i>
   <i type="logical" name="LFOCKAEDFT"> F  </i>
   <i name="HFSCREEN">      0.00000000</i>
   <i name="HFSCREENC">      0.00000000</i>
   <i type="int" name="NBANDSGWLOW">     0</i>
  </separator>
  <separator name="vdW DFT" >
   <i type="logical" name="LUSE_VDW"> F  </i>
   <i name="Zab_VDW">     -0.84910000</i>
   <i name="PARAM1">      0.12340000</i>
   <i name="PARAM2">      1.00000000</i>
   <i name="PARAM3">      0.00000000</i>
  </separator>
  <separator name="model GW" >
   <i type="int" name="MODEL_GW">     0</i>
   <i name="MODEL_EPS0">      6.87015839</i>
   <i name="MODEL_ALPHA">      1.00000000</i>
  </separator>
  <separator name="linear response parameters" >
   <i type="logical" name="LEPSILON"> F  </i>
   <i type="logical" name="LRPA"> F  </i>
   <i type="logical" name="LNABLA"> F  </i>
   <i type="logical" name="LVEL"> F  </i>
   <i type="int" name="KINTER">     0</i>
   <i name="CSHIFT">      0.10000000</i>
   <i name="OMEGAMAX">     -1.00000000</i>
   <i name="DEG_THRESHOLD">      0.00200000</i>
  </separator>
  <separator name="orbital magnetization" >
   <i type="logical" name="NUCIND"> F  </i>
   <v name="MAGPOS">      0.00000000      0.00000000      0.00000000</v>
   <i type="logical" name="LNICSALL"> T  </i>
   <i type="logical" name="ORBITALMAG"> F  </i>
   <i type="logical" name="LMAGBLOCH"> F  </i>
   <i type="logical" name="LCHIMAG"> F  </i>
   <i type="logical" name="LGAUGE"> T  </i>
   <i type="int" name="MAGATOM">     0</i>
   <v name="MAGDIPOL">      0.00000000      0.00000000      0.00000000</v>
   <v name="AVECCONST">      0.00000000      0.00000000      0.00000000</v>
  </separator>
  <separator name="response functions" >
   <i type="logical" name="LADDER"> F  </i>
   <i type="logical" name="LFXC"> F  </i>
   <i type="logical" name="LHARTREE"> T  </i>
   <i type="int" name="IBSE">     0</i>
   <v type="int" name="KPOINT">    -1     0     0     0</v>
   <i type="logical" name="LTCTE"> F  </i>
   <i type="logical" name="LTETE"> F  </i>
   <i type="logical" name="LTRIPLET"> F  </i>
   <i type="logical" name="LFXCEPS"> F  </i>
   <i type="logical" name="LFXHEG"> F  </i>
   <i type="int" name="NATURALO">     0</i>
   <i type="logical" name="L2ORDER"> F  </i>
   <i type="logical" name="LUSEW"> F  </i>
   <i name="ENCUTGW">     -2.00000000</i>
   <i name="ENCUTGWSOFT">     -2.00000000</i>
   <i name="ENCUTLF">     -1.00000000</i>
   <i type="int" name="LMAXMP2">    -1</i>
   <i name="SCISSOR">      0.00000000</i>
   <i type="int" name="NOMEGA">     0</i>
   <i type="int" name="NOMEGAR">     0</i>
   <i type="int" name="NBANDSGW">    -1</i>
   <i type="int" name="NBANDSO">    -1</i>
   <i type="int" name="NBANDSV">    -1</i>
   <i type="int" name="NELM">     1</i>
   <i type="int" name="NELMHF">     1</i>
   <i type="int" name="DIM">     3</i>
   <i type="int" name="ANTIRES">     0</i>
   <i name="OMEGAMAX">    -30.00000000</i>
   <i name="OMEGAMIN">    -30.00000000</i>
   <i name="OMEGATL">   -200.00000000</i>
   <i type="int" name="OMEGAGRID">     0</i>
   <i name="CSHIFT">     -0.10000000</i>
   <i type="logical" name="SELFENERGY"> F  </i>
   <i type="logical" name="LSPECTRAL"> F  </i>
   <i type="logical" name="LSPECTRALGW"> F  </i>
   <i type="logical" name="LSINGLES"> F  </i>
   <i type="logical" name="LFERMIGW"> F  </i>
   <i type="logical" name="ODDONLYGW"> F  </i>
   <i type="logical" name="EVENONLYGW"> F  </i>
   <i type="int" name="NKREDLFX">     1</i>
   <i type="int" name="NKREDLFY">     1</i>
   <i type="int" name="NKREDLFZ">     1</i>
   <i type="int" name="MAXMEM">  1800</i>
   <i type="int" name="TELESCOPE">     0</i>
   <i type="int" name="TAUPAR">     1</i>
   <i type="int" name="OMEGAPAR">    -1</i>
   <i name="LAMBDA">      1.00000000</i>
  </separator>
  <separator name="External order field" >
   <i name="OFIELD_KAPPA">      0.00000000</i>
   <v name="OFIELD_K">      0.00000000      0.00000000      0.00000000</v>
   <i name="OFIELD_Q6_NEAR">      0.00000000</i>
   <i name="OFIELD_Q6_FAR">      0.00000000</i>
   <i name="OFIELD_A">      0.00000000</i>
  </separator>
 </parameters>
 <atominfo>
  <atoms>      64 </atoms>
  <types>       1 </types>
  <array name="atoms" >
   <dimension dim="1">ion</dimension>
   <field type="string">element</field>
   <field type="int">atomtype</field>
   <set>
    <rc><c>Ni</c><c>   1</c></rc>
    <rc><c>Ni</c><c>   1</c></rc>
    <rc><c>Ni</c><c>   1</c></rc>
    <rc><c>Ni</c><c>   1</c></rc>
    <rc><c>Ni</c><c>   1</c></rc>
    <rc><c>Ni</c><c>   1</c></rc>
    <rc><c>Ni</c><c>   1</c></rc>
    <rc><c>Ni</c><c>   1</c></rc>
    <rc><c>Ni</c><c>   1</c></rc>
    <rc><c>Ni</c><c>   1</c></rc>
    <rc><c>Ni</c><c>   1</c></rc>
    <rc><c>Ni</c><c>   1</c></rc>
    <rc><c>Ni</c><c>   1</c></rc>
    <rc><c>Ni</c><c>   1</c></rc>
    <rc><c>Ni</c><c>   1</c></rc>
    <rc><c>Ni</c><c>   1</c></rc>
    <rc><c>Ni</c><c>   1</c></rc>
    <rc><c>Ni</c><c>   1</c></rc>
    <rc><c>Ni</c><c>   1</c></rc>
    <rc><c>Ni</c><c>   1</c></rc>
    <rc><c>Ni</c><c>   1</c></rc>
    <rc><c>Ni</c><c>   1</c></rc>
    <rc><c>Ni</c><c>   1</c></rc>
    <rc><c>Ni</c><c>   1</c></rc>
    <rc><c>Ni</c><c>   1</c></rc>
    <rc><c>Ni</c><c>   1</c></rc>
    <rc><c>Ni</c><c>   1</c></rc>
    <rc><c>Ni</c><c>   1</c></rc>
    <rc><c>Ni</c><c>   1</c></rc>
    <rc><c>Ni</c><c>   1</c></rc>
    <rc><c>Ni</c><c>   1</c></rc>
    <rc><c>Ni</c><c>   1</c></rc>
    <rc><c>Ni</c><c>   1</c></rc>
    <rc><c>Ni</c><c>   1</c></rc>
    <rc><c>Ni</c><c>   1</c></rc>
    <rc><c>Ni</c><c>   1</c></rc>
    <rc><c>Ni</c><c>   1</c></rc>
    <rc><c>Ni</c><c>   1</c></rc>
    <rc><c>Ni</c><c>   1</c></rc>
    <rc><c>Ni</c><c>   1</c></rc>
    <rc><c>Ni</c><c>   1</c></rc>
    <rc><c>Ni</c><c>   1</c></rc>
    <rc><c>Ni</c><c>   1</c></rc>
    <rc><c>Ni</c><c>   1</c></rc>
    <rc><c>Ni</c><c>   1</c></rc>
    <rc><c>Ni</c><c>   1</c></rc>
    <rc><c>Ni</c><c>   1</c></rc>
    <rc><c>Ni</c><c>   1</c></rc>
    <rc><c>Ni</c><c>   1</c></rc>
    <rc><c>Ni</c><c>   1</c></rc>
    <rc><c>Ni</c><c>   1</c></rc>
    <rc><c>Ni</c><c>   1</c></rc>
    <rc><c>Ni</c><c>   1</c></rc>
    <rc><c>Ni</c><c>   1</c></rc>
    <rc><c>Ni</c><c>   1</c></rc>
    <rc><c>Ni</c><c>   1</c></rc>
    <rc><c>Ni</c><c>   1</c></rc>
    <rc><c>Ni</c><c>   1</c></rc>
    <rc><c>Ni</c><c>   1</c></rc>
    <rc><c>Ni</c><c>   1</c></rc>
    <rc><c>Ni</c><c>   1</c></rc>
    <rc><c>Ni</c><c>   1</c></rc>
    <rc><c>Ni</c><c>   1</c></rc>
    <rc><c>Ni</c><c>   1</c></rc>
   </set>
  </array>
  <array name="atomtypes" >
   <dimension dim="1">type</dimension>
   <field type="int">atomspertype</field>
   <field type="string">element</field>
   <field>mass</field>
   <field>valence</field>
   <field type="string">pseudopotential</field>
   <set>
    <rc><c>  64</c><c>Ni</c><c>     58.69000000</c><c>     16.00000000</c><c> PAW_PBE Ni_pv 06Sep2000                </c></rc>
   </set>
  </array>
 </atominfo>
 <structure name="initialpos" >
  <crystal>
   <varray name="basis" >
    <v>       0.00000000       7.15575000       7.15575000 </v>
    <v>       7.15575000       0.00000000       7.15575000 </v>
    <v>       7.15575000       7.15575000       0.00000000 </v>
   </varray>
   <i name="volume">    732.81689501 </i>
   <varray name="rec_basis" >
    <v>      -0.06987388       0.06987388       0.06987388 </v>
    <v>       0.06987388      -0.06987388       0.06987388 </v>
    <v>       0.06987388       0.06987388      -0.06987388 </v>
   </varray>
  </crystal>
  <varray name="positions" >
   <v>       0.00000000       0.00000000       0.00000000 </v>
   <v>       0.00000000       0.00000000       0.25000000 </v>
   <v>       0.00000000       0.00000000       0.50000000 </v>
   <v>       0.00000000       0.00000000       0.75000000 </v>
   <v>       0.00000000       0.25000000       0.00000000 </v>
   <v>       0.00000000       0.25000000       0.25000000 </v>
   <v>       0.00000000       0.25000000       0.50000000 </v>
   <v>       0.00000000       0.25000000       0.75000000 </v>
   <v>       0.00000000       0.50000000       0.00000000 </v>
   <v>       0.00000000       0.50000000       0.25000000 </v>
   <v>       0.00000000       0.50000000       0.50000000 </v>
   <v>       0.00000000       0.50000000       0.75000000 </v>
   <v>       0.00000000       0.75000000       0.00000000 </v>
   <v>       0.00000000       0.75000000       0.25000000 </v>
   <v>       0.00000000       0.75000000       0.50000000 </v>
   <v>       0.00000000       0.75000000       0.75000000 </v>
   <v>       0.25000000       0.00000000       0.00000000 </v>
   <v>       0.25000000       0.00000000       0.25000000 </v>
   <v>       0.25000000       0.00000000       0.50000000 </v>
   <v>       0.25000000       0.00000000       0.75000000 </v>
   <v>       0.25000000       0.25000000       0.00000000 </v>
   <v>       0.25000000       0.25000000       0.25000000 </v>
   <v>       0.25000000       0.25000000       0.50000000 </v>
   <v>       0.25000000       0.25000000       0.75000000 </v>
   <v>       0.25000000       0.50000000       0.00000000 </v>
   <v>       0.25000000       0.50000000       0.25000000 </v>
   <v>       0.25000000       0.50000000       0.50000000 </v>
   <v>       0.25000000       0.50000000       0.75000000 </v>
   <v>       0.25000000       0.75000000       0.00000000 </v>
   <v>       0.25000000       0.75000000       0.25000000 </v>
   <v>       0.25000000       0.75000000       0.50000000 </v>
   <v>       0.25000000       0.75000000       0.75000000 </v>
   <v>       0.50000000       0.00000000       0.00000000 </v>
   <v>       0.50000000       0.00000000       0.25000000 </v>
   <v>       0.50000000       0.00000000       0.50000000 </v>
   <v>       0.50000000       0.00000000       0.75000000 </v>
   <v>       0.50000000       0.25000000       0.00000000 </v>
   <v>       0.50000000       0.25000000       0.25000000 </v>
   <v>       0.50000000       0.25000000       0.50000000 </v>
   <v>       0.50000000       0.25000000       0.75000000 </v>
   <v>       0.50000000       0.50000000       0.00000000 </v>
   <v>       0.50000000       0.50000000       0.25000000 </v>
   <v>       0.50000000       0.50000000       0.50000000 </v>
   <v>       0.50000000       0.50000000       0.75000000 </v>
   <v>       0.50000000       0.75000000       0.00000000 </v>
   <v>       0.50000000       0.75000000       0.25000000 </v>
   <v>       0.50000000       0.75000000       0.50000000 </v>
   <v>       0.50000000       0.75000000       0.75000000 </v>
   <v>       0.75000000       0.00000000       0.00000000 </v>
   <v>       0.75000000       0.00000000       0.25000000 </v>
   <v>       0.75000000       0.00000000       0.50000000 </v>
   <v>       0.75000000       0.00000000       0.75000000 </v>
   <v>       0.75000000       0.25000000       0.00000000 </v>
   <v>       0.75000000       0.25000000       0.25000000 </v>
   <v>       0.75000000       0.25000000       0.50000000 </v>
   <v>       0.75000000       0.25000000       0.75000000 </v>
   <v>       0.75000000       0.50000000       0.00000000 </v>
   <v>       0.75000000       0.50000000       0.25000000 </v>
   <v>       0.75000000       0.50000000       0.50000000 </v>
   <v>       0.75000000       0.50000000       0.75000000 </v>
   <v>       0.75000000       0.75000000       0.00000000 </v>
   <v>       0.75000000       0.75000000       0.25000000 </v>
   <v>       0.75000000       0.75000000       0.50000000 </v>
   <v>       0.75000000       0.75000000       0.75000000 </v>
  </varray>
 </structure>
 <calculation>
  <scstep>
   <time name="dav">  135.81  271.06</time>
   <time name="total">  136.38  272.25</time>
   <energy>
    <i name="alphaZ">   9415.99145534 </i>
    <i name="ewald">-151163.59208207 </i>
    <i name="hartreedc"> -63206.27708342 </i>
    <i name="XCdc">   5707.96683431 </i>
    <i name="pawpsdc"> 172361.15642774 </i>
    <i name="pawaedc">-181272.45834873 </i>
    <i name="eentropy">     -0.01448675 </i>
    <i name="bandstr">    -91.92490187 </i>
    <i name="atom"> 224016.65216645 </i>
    <i name="e_fr_energy">  15767.49998100 </i>
    <i name="e_wo_entrp">  15767.51446775 </i>
    <i name="e_0_energy">  15767.50480992 </i>
   </energy>
  </scstep>
  <scstep>
   <time name="dav">  122.76  241.63</time>
   <time name="total">  122.79  241.71</time>
   <energy>
    <i name="e_fr_energy">   1092.53219558 </i>
    <i name="e_wo_entrp">   1092.50013029 </i>
    <i name="e_0_energy">   1092.52150715 </i>
   </energy>
  </scstep>
  <scstep>
   <time name="dav">  117.26  233.88</time>
   <time name="total">  117.27  233.91</time>
   <energy>
    <i name="e_fr_energy">   -349.14268485 </i>
    <i name="e_wo_entrp">   -349.30981333 </i>
    <i name="e_0_energy">   -349.19839434 </i>
   </energy>
  </scstep>
  <scstep>
   <time name="dav">  136.12  267.67</time>
   <time name="total">  136.12  267.71</time>
   <energy>
    <i name="e_fr_energy">   -431.03105807 </i>
    <i name="e_wo_entrp">   -431.20857574 </i>
    <i name="e_0_energy">   -431.09023063 </i>
   </energy>
  </scstep>
  <scstep>
   <time name="dav">  122.20  243.74</time>
   <time name="total">  127.21  253.76</time>
   <energy>
    <i name="e_fr_energy">   -432.40310438 </i>
    <i name="e_wo_entrp">   -432.58042894 </i>
    <i name="e_0_energy">   -432.46221257 </i>
   </energy>
  </scstep>
  <scstep>
   <time name="dav">  135.61  266.89</time>
   <time name="total">  140.66  276.99</time>
   <energy>
    <i name="e_fr_energy">   -400.83331878 </i>
    <i name="e_wo_entrp">   -400.44220055 </i>
    <i name="e_0_energy">   -400.70294604 </i>
   </energy>
  </scstep>
  <scstep>
   <time name="dav">  120.52  240.41</time>
   <time name="total">  125.71  250.79</time>
   <energy>
    <i name="e_fr_energy">   -369.50194791 </i>
    <i name="e_wo_entrp">   -369.47541525 </i>
    <i name="e_0_energy">   -369.49310369 </i>
   </energy>
  </scstep>
  <scstep>
   <time name="dav">  138.47 2471.78</time>
   <time name="total">  143.68 2481.84</time>
   <energy>
    <i name="e_fr_energy">   -369.53949934 </i>
    <i name="e_wo_entrp">   -369.51514380 </i>
    <i name="e_0_energy">   -369.53138082 </i>
   </energy>
  </scstep>
  <scstep>
   <time name="dav">  126.90  253.29</time>
   <time name="total">  131.91  263.30</time>
   <energy>
    <i name="e_fr_energy">   -369.39125862 </i>
    <i name="e_wo_entrp">   -369.35607180 </i>
    <i name="e_0_energy">   -369.37952968 </i>
   </energy>
  </scstep>
  <scstep>
   <time name="dav">  141.02  277.83</time>
   <time name="total">  146.10  287.99</time>
   <energy>
    <i name="e_fr_energy">   -369.39722092 </i>
    <i name="e_wo_entrp">   -369.36252833 </i>
    <i name="e_0_energy">   -369.38565672 </i>
   </energy>
  </scstep>
  <scstep>
   <time name="dav">  128.92  257.22</time>
   <time name="total">  136.56  272.50</time>
   <energy>
    <i name="e_fr_energy">   -369.40131713 </i>
    <i name="e_wo_entrp">   -369.36740507 </i>
    <i name="e_0_energy">   -369.39001311 </i>
   </energy>
  </scstep>
  <scstep>
   <time name="dav">  122.97  241.45</time>
   <time name="total">  128.41  252.35</time>
   <energy>
    <i name="e_fr_energy">   -369.40134902 </i>
    <i name="e_wo_entrp">   -369.36602992 </i>
    <i name="e_0_energy">   -369.38957599 </i>
   </energy>
  </scstep>
  <scstep>
   <time name="dav">  133.23  265.82</time>
   <time name="total">  138.30  275.49</time>
   <energy>
    <i name="e_fr_energy">   -369.40135683 </i>
    <i name="e_wo_entrp">   -369.36577170 </i>
    <i name="e_0_energy">   -369.38949512 </i>
   </energy>
  </scstep>
  <scstep>
   <time name="dav">  107.43  210.69</time>
   <time name="total">  112.46  220.76</time>
   <energy>
    <i name="e_fr_energy">   -369.40133601 </i>
    <i name="e_wo_entrp">   -369.36578297 </i>
    <i name="e_0_energy">   -369.38948499 </i>
   </energy>
  </scstep>
  <scstep>
   <time name="dav">   76.73  153.15</time>
   <time name="total">   81.81  163.29</time>
   <energy>
    <i name="e_fr_energy">   -369.40132920 </i>
    <i name="e_wo_entrp">   -369.36583626 </i>
    <i name="e_0_energy">   -369.38949822 </i>
   </energy>
  </scstep>
  <scstep>
   <time name="dav">   92.40  180.81</time>
   <time name="total">   92.73  181.49</time>
   <energy>
    <i name="alphaZ">   9415.99145534 </i>
    <i name="ewald">-151163.59208207 </i>
    <i name="hartreedc"> -60856.14922175 </i>
    <i name="XCdc">   5619.60395257 </i>
    <i name="pawpsdc"> 171425.13299102 </i>
    <i name="pawaedc">-180481.01863330 </i>
    <i name="eentropy">     -0.03547748 </i>
    <i name="bandstr"> -18345.98648006 </i>
    <i name="atom"> 224016.65216645 </i>
    <i name="e_fr_energy">   -369.40132927 </i>
    <i name="e_wo_entrp">   -369.36585180 </i>
    <i name="e_0_energy">   -369.38950345 </i>
   </energy>
  </scstep>
  <structure>
   <crystal>
    <varray name="basis" >
     <v>       0.00000000       7.15575000       7.15575000 </v>
     <v>       7.15575000       0.00000000       7.15575000 </v>
     <v>       7.15575000       7.15575000       0.00000000 </v>
    </varray>
    <i name="volume">    732.81689501 </i>
    <varray name="rec_basis" >
     <v>      -0.06987388       0.06987388       0.06987388 </v>
     <v>       0.06987388      -0.06987388       0.06987388 </v>
     <v>       0.06987388       0.06987388      -0.06987388 </v>
    </varray>
   </crystal>
   <varray name="positions" >
    <v>       0.00000000       0.00000000       0.00000000 </v>
    <v>       0.00000000       0.00000000       0.25000000 </v>
    <v>       0.00000000       0.00000000       0.50000000 </v>
    <v>       0.00000000       0.00000000       0.75000000 </v>
    <v>       0.00000000       0.25000000       0.00000000 </v>
    <v>       0.00000000       0.25000000       0.25000000 </v>
    <v>       0.00000000       0.25000000       0.50000000 </v>
    <v>       0.00000000       0.25000000       0.75000000 </v>
    <v>       0.00000000       0.50000000       0.00000000 </v>
    <v>       0.00000000       0.50000000       0.25000000 </v>
    <v>       0.00000000       0.50000000       0.50000000 </v>
    <v>       0.00000000       0.50000000       0.75000000 </v>
    <v>       0.00000000       0.75000000       0.00000000 </v>
    <v>       0.00000000       0.75000000       0.25000000 </v>
    <v>       0.00000000       0.75000000       0.50000000 </v>
    <v>       0.00000000       0.75000000       0.75000000 </v>
    <v>       0.25000000       0.00000000       0.00000000 </v>
    <v>       0.25000000       0.00000000       0.25000000 </v>
    <v>       0.25000000       0.00000000       0.50000000 </v>
    <v>       0.25000000       0.00000000       0.75000000 </v>
    <v>       0.25000000       0.25000000       0.00000000 </v>
    <v>       0.25000000       0.25000000       0.25000000 </v>
    <v>       0.25000000       0.25000000       0.50000000 </v>
    <v>       0.25000000       0.25000000       0.75000000 </v>
    <v>       0.25000000       0.50000000       0.00000000 </v>
    <v>       0.25000000       0.50000000       0.25000000 </v>
    <v>       0.25000000       0.50000000       0.50000000 </v>
    <v>       0.25000000       0.50000000       0.75000000 </v>
    <v>       0.25000000       0.75000000       0.00000000 </v>
    <v>       0.25000000       0.75000000       0.25000000 </v>
    <v>       0.25000000       0.75000000       0.50000000 </v>
    <v>       0.25000000       0.75000000       0.75000000 </v>
    <v>       0.50000000       0.00000000       0.00000000 </v>
    <v>       0.50000000       0.00000000       0.25000000 </v>
    <v>       0.50000000       0.00000000       0.50000000 </v>
    <v>       0.50000000       0.00000000       0.75000000 </v>
    <v>       0.50000000       0.25000000       0.00000000 </v>
    <v>       0.50000000       0.25000000       0.25000000 </v>
    <v>       0.50000000       0.25000000       0.50000000 </v>
    <v>       0.50000000       0.25000000       0.75000000 </v>
    <v>       0.50000000       0.50000000       0.00000000 </v>
    <v>       0.50000000       0.50000000       0.25000000 </v>
    <v>       0.50000000       0.50000000       0.50000000 </v>
    <v>       0.50000000       0.50000000       0.75000000 </v>
    <v>       0.50000000       0.75000000       0.00000000 </v>
    <v>       0.50000000       0.75000000       0.25000000 </v>
    <v>       0.50000000       0.75000000       0.50000000 </v>
    <v>       0.50000000       0.75000000       0.75000000 </v>
    <v>       0.75000000       0.00000000       0.00000000 </v>
    <v>       0.75000000       0.00000000       0.25000000 </v>
    <v>       0.75000000       0.00000000       0.50000000 </v>
    <v>       0.75000000       0.00000000       0.75000000 </v>
    <v>       0.75000000       0.25000000       0.00000000 </v>
    <v>       0.75000000       0.25000000       0.25000000 </v>
    <v>       0.75000000       0.25000000       0.50000000 </v>
    <v>       0.75000000       0.25000000       0.75000000 </v>
    <v>       0.75000000       0.50000000       0.00000000 </v>
    <v>       0.75000000       0.50000000       0.25000000 </v>
    <v>       0.75000000       0.50000000       0.50000000 </v>
    <v>       0.75000000       0.50000000       0.75000000 </v>
    <v>       0.75000000       0.75000000       0.00000000 </v>
    <v>       0.75000000       0.75000000       0.25000000 </v>
    <v>       0.75000000       0.75000000       0.50000000 </v>
    <v>       0.75000000       0.75000000       0.75000000 </v>
   </varray>
  </structure>
  <varray name="forces" >
   <v>      -0.00000000       0.00000000       0.00000000 </v>
   <v>      -0.00000000      -0.00000000      -0.00000000 </v>
   <v>      -0.00000000      -0.00000000       0.00000000 </v>
   <v>      -0.00000000       0.00000000       0.00000000 </v>
   <v>       0.00000000       0.00000000       0.00000000 </v>
   <v>       0.00000000      -0.00000000       0.00000000 </v>
   <v>      -0.00000000       0.00000000       0.00000000 </v>
   <v>      -0.00000000      -0.00000000       0.00000000 </v>
   <v>      -0.00000000       0.00000000      -0.00000000 </v>
   <v>       0.00000000      -0.00000000      -0.00000000 </v>
   <v>       0.00000000       0.00000000      -0.00000000 </v>
   <v>      -0.00000000      -0.00000000       0.00000000 </v>
   <v>       0.00000000      -0.00000000      -0.00000000 </v>
   <v>       0.00000000       0.00000000      -0.00000000 </v>
   <v>      -0.00000000      -0.00000000       0.00000000 </v>
   <v>      -0.00000000       0.00000000       0.00000000 </v>
   <v>      -0.00000000       0.00000000      -0.00000000 </v>
   <v>      -0.00000000       0.00000000      -0.00000000 </v>
   <v>       0.00000000       0.00000000      -0.00000000 </v>
   <v>       0.00000000      -0.00000000       0.00000000 </v>
   <v>       0.00000000       0.00000000      -0.00000000 </v>
   <v>      -0.00000000       0.00000000       0.00000000 </v>
   <v>      -0.00000000       0.00000000       0.00000000 </v>
   <v>      -0.00000000      -0.00000000       0.00000000 </v>
   <v>      -0.00000000       0.00000000      -0.00000000 </v>
   <v>      -0.00000000       0.00000000      -0.00000000 </v>
   <v>       0.00000000       0.00000000      -0.00000000 </v>
   <v>      -0.00000000      -0.00000000       0.00000000 </v>
   <v>       0.00000000       0.00000000      -0.00000000 </v>
   <v>       0.00000000       0.00000000       0.00000000 </v>
   <v>       0.00000000       0.00000000      -0.00000000 </v>
   <v>      -0.00000000      -0.00000000       0.00000000 </v>
   <v>       0.00000000      -0.00000000       0.00000000 </v>
   <v>      -0.00000000      -0.00000000       0.00000000 </v>
   <v>       0.00000000      -0.00000000      -0.00000000 </v>
   <v>      -0.00000000      -0.00000000       0.00000000 </v>
   <v>       0.00000000      -0.00000000      -0.00000000 </v>
   <v>      -0.00000000      -0.00000000       0.00000000 </v>
   <v>      -0.00000000      -0.00000000       0.00000000 </v>
   <v>      -0.00000000      -0.00000000       0.00000000 </v>
   <v>      -0.00000000       0.00000000      -0.00000000 </v>
   <v>       0.00000000      -0.00000000      -0.00000000 </v>
   <v>       0.00000000       0.00000000       0.00000000 </v>
   <v>      -0.00000000      -0.00000000       0.00000000 </v>
   <v>       0.00000000       0.00000000      -0.00000000 </v>
   <v>      -0.00000000      -0.00000000      -0.00000000 </v>
   <v>       0.00000000       0.00000000       0.00000000 </v>
   <v>      -0.00000000      -0.00000000       0.00000000 </v>
   <v>       0.00000000      -0.00000000       0.00000000 </v>
   <v>      -0.00000000       0.00000000      -0.00000000 </v>
   <v>      -0.00000000       0.00000000       0.00000000 </v>
   <v>       0.00000000       0.00000000       0.00000000 </v>
   <v>      -0.00000000       0.00000000      -0.00000000 </v>
   <v>      -0.00000000      -0.00000000      -0.00000000 </v>
   <v>      -0.00000000       0.00000000       0.00000000 </v>
   <v>       0.00000000       0.00000000      -0.00000000 </v>
   <v>       0.00000000       0.00000000      -0.00000000 </v>
   <v>       0.00000000      -0.00000000      -0.00000000 </v>
   <v>      -0.00000000       0.00000000       0.00000000 </v>
   <v>       0.00000000      -0.00000000      -0.00000000 </v>
   <v>       0.00000000       0.00000000       0.00000000 </v>
   <v>       0.00000000       0.00000000      -0.00000000 </v>
   <v>       0.00000000       0.00000000       0.00000000 </v>
   <v>       0.00000000       0.00000000      -0.00000000 </v>
  </varray>
  <varray name="stress" >
   <v>     -88.65843940      -0.00000000       0.00000000 </v>
   <v>      -0.00000000     -88.65843940      -0.00000000 </v>
   <v>      -0.00000000      -0.00000000     -88.65843940 </v>
  </varray>
  <energy>
   <i name="e_fr_energy">   -369.40132927 </i>
   <i name="e_wo_entrp">   -369.38950345 </i>
   <i name="e_0_energy">     -0.03547748 </i>
  </energy>
  <kpoints>
   <generation param="Gamma">
    <v type="int" name="divisions">       3        3        3 </v>
    <v name="usershift">      0.00000000       0.00000000       0.00000000 </v>
    <v name="genvec1">      0.33333333       0.00000000       0.00000000 </v>
    <v name="genvec2">      0.00000000       0.33333333       0.00000000 </v>
    <v name="genvec3">      0.00000000       0.00000000       0.33333333 </v>
    <v name="shift">      0.00000000       0.00000000       0.00000000 </v>
   </generation>
   <varray name="kpointlist" >
    <v>       0.00000000       0.00000000       0.00000000 </v>
    <v>       0.33333333       0.00000000       0.00000000 </v>
    <v>       0.33333333       0.33333333       0.00000000 </v>
    <v>      -0.33333333       0.33333333       0.00000000 </v>
    <v>       0.00000000       0.33333333       0.33333333 </v>
    <v>      -0.33333333       0.33333333       0.33333333 </v>
   </varray>
   <varray name="weights" >
    <v>       0.03703704 </v>
    <v>       0.29629630 </v>
    <v>       0.14814815 </v>
    <v>       0.29629630 </v>
    <v>       0.07407407 </v>
    <v>       0.14814815 </v>
   </varray>
  </kpoints>
  <scstep>
   <time name="total">  168.22  335.87</time>
   <energy>
    <i name="e_fr_energy">  -3366.78687618 </i>
    <i name="e_wo_entrp">  -3366.78687602 </i>
    <i name="e_0_energy">  -3366.78687612 </i>
   </energy>
  </scstep>
  <scstep>
   <time name="total">  219.68  438.46</time>
   <energy>
    <i name="e_fr_energy">  -4026.79615683 </i>
    <i name="e_wo_entrp">  -4026.79620009 </i>
    <i name="e_0_energy">  -4026.79617125 </i>
   </energy>
  </scstep>
  <scstep>
   <time name="total">  223.34  445.93</time>
   <energy>
    <i name="e_fr_energy">  -4024.59842852 </i>
    <i name="e_wo_entrp">  -4024.59844815 </i>
    <i name="e_0_energy">  -4024.59843506 </i>
   </energy>
  </scstep>
  <scstep>
   <time name="total">  182.03  363.52</time>
   <energy>
    <i name="e_fr_energy">  -4022.37219804 </i>
    <i name="e_wo_entrp">  -4022.37225294 </i>
    <i name="e_0_energy">  -4022.37221634 </i>
   </energy>
  </scstep>
  <scstep>
   <time name="total">  182.06  363.26</time>
   <energy>
    <i name="e_fr_energy">  -4027.12308201 </i>
    <i name="e_wo_entrp">  -4027.12314959 </i>
    <i name="e_0_energy">  -4027.12310454 </i>
   </energy>
  </scstep>
  <scstep>
   <time name="total">  189.20  371.84</time>
   <energy>
    <i name="e_fr_energy">  -4024.24640846 </i>
    <i name="e_wo_entrp">  -4024.24644670 </i>
    <i name="e_0_energy">  -4024.24642121 </i>
   </energy>
  </scstep>
  <scstep>
   <time name="total">  193.27  386.13</time>
   <energy>
    <i name="e_fr_energy">  -4024.89917225 </i>
    <i name="e_wo_entrp">  -4024.89919936 </i>
    <i name="e_0_energy">  -4024.89918129 </i>
   </energy>
  </scstep>
  <scstep>
   <time name="total">  180.23  359.83</time>
   <energy>
    <i name="e_fr_energy">  -4023.49513737 </i>
    <i name="e_wo_entrp">  -4023.49517859 </i>
    <i name="e_0_energy">  -4023.49515111 </i>
   </energy>
  </scstep>
  <scstep>
   <time name="total">  211.59  422.46</time>
   <energy>
    <i name="e_fr_energy">  -4023.65406466 </i>
    <i name="e_wo_entrp">  -4023.65409723 </i>
    <i name="e_0_energy">  -4023.65407552 </i>
   </energy>
  </scstep>
  <scstep>
   <time name="total">  223.92  446.72</time>
   <energy>
    <i name="e_fr_energy">  -4022.83421184 </i>
    <i name="e_wo_entrp">  -4022.83425207 </i>
    <i name="e_0_energy">  -4022.83422525 </i>
   </energy>
  </scstep>
  <scstep>
   <time name="total">  246.45  491.97</time>
   <energy>
    <i name="e_fr_energy">  -4023.54802282 </i>
    <i name="e_wo_entrp">  -4023.54806362 </i>
    <i name="e_0_energy">  -4023.54803642 </i>
   </energy>
  </scstep>
  <scstep>
   <time name="total">  234.78  464.62</time>
   <energy>
    <i name="e_fr_energy">  -4022.88499767 </i>
    <i name="e_wo_entrp">  -4022.88503723 </i>
    <i name="e_0_energy">  -4022.88501085 </i>
   </energy>
  </scstep>
  <scstep>
   <time name="total">  233.34  465.93</time>
   <energy>
    <i name="e_fr_energy">  -4023.07438227 </i>
    <i name="e_wo_entrp">  -4023.07442125 </i>
    <i name="e_0_energy">  -4023.07439526 </i>
   </energy>
  </scstep>
  <scstep>
   <time name="total">  258.42  515.92</time>
   <energy>
    <i name="e_fr_energy">  -4023.12448520 </i>
    <i name="e_wo_entrp">  -4023.12452492 </i>
    <i name="e_0_energy">  -4023.12449844 </i>
   </energy>
  </scstep>
  <scstep>
   <time name="total">  262.81  524.67</time>
   <energy>
    <i name="e_fr_energy">  -4023.04763001 </i>
    <i name="e_wo_entrp">  -4023.04766983 </i>
    <i name="e_0_energy">  -4023.04764328 </i>
   </energy>
  </scstep>
  <scstep>
   <time name="total">  277.90  554.87</time>
   <energy>
    <i name="e_fr_energy">  -4023.00123863 </i>
    <i name="e_wo_entrp">  -4023.00127819 </i>
    <i name="e_0_energy">  -4023.00125182 </i>
   </energy>
  </scstep>
  <scstep>
   <time name="total">  283.24  565.31</time>
   <energy>
    <i name="e_fr_energy">  -4023.02477049 </i>
    <i name="e_wo_entrp">  -4023.02480973 </i>
    <i name="e_0_energy">  -4023.02478357 </i>
   </energy>
  </scstep>
  <scstep>
   <time name="total">  306.68  607.58</time>
   <energy>
    <i name="e_fr_energy">  -4023.02836995 </i>
    <i name="e_wo_entrp">  -4023.02840920 </i>
    <i name="e_0_energy">  -4023.02838303 </i>
   </energy>
  </scstep>
  <kpoints>
   <generation param="Gamma">
    <v type="int" name="divisions">       3        3        3 </v>
    <v name="usershift">      0.00000000       0.00000000       0.00000000 </v>
    <v name="genvec1">      0.33333333       0.00000000       0.00000000 </v>
    <v name="genvec2">      0.00000000       0.33333333       0.00000000 </v>
    <v name="genvec3">      0.00000000       0.00000000       0.33333333 </v>
    <v name="shift">      0.00000000       0.00000000       0.00000000 </v>
   </generation>
   <varray name="kpointlist" >
    <v>       0.00000000       0.00000000       0.00000000 </v>
    <v>       0.33333333       0.00000000       0.00000000 </v>
    <v>       0.33333333       0.33333333       0.00000000 </v>
    <v>      -0.33333333       0.33333333       0.00000000 </v>
   </varray>
   <varray name="weights" >
    <v>       0.03703704 </v>
    <v>       0.29629630 </v>
    <v>       0.22222222 </v>
    <v>       0.44444444 </v>
   </varray>
  </kpoints>
  <dynmat>
   <varray name="hessian" >
    <v>      -0.13177859       0.00000000       0.00000000       0.01445471       0.01600038       0.00000000       0.00021535       0.00015501      -0.00000000       0.01445471       0.01600038      -0.00000000       0.01445471      -0.00000000       0.01600038       0.00116740       0.00078595       0.00078595       0.00029173       0.00078595      -0.00035249      -0.00006677      -0.00000000      -0.00000000       0.00021535      -0.00000000       0.00015501       0.00029173      -0.00035249       0.00078595       0.00002248       0.00000000      -0.00000000       0.00029173      -0.00035249       0.00078595       0.01445471       0.00000000       0.01600038      -0.00006677       0.00000000       0.00000000       0.00029173       0.00078595      -0.00035249       0.00116740       0.00078595       0.00078595      -0.00006677      -0.00000000       0.00000000       0.00029173       0.00078595       0.00035249       0.00116740       0.00078595      -0.00078595       0.01445471      -0.00000000      -0.01600038       0.00029173       0.00035249       0.00078595       0.00032316      -0.00000000      -0.00000000       0.00029173       0.00035249      -0.00078595      -0.00072602       0.00000000      -0.00000000       0.00116740      -0.00078595       0.00078595       0.00029173      -0.00078595       0.00035249      -0.00025034       0.00000000       0.00000000       0.00011920       0.00000000      -0.00003909       0.01445471      -0.01600038       0.00000000      -0.00072602       0.00000000      -0.00000000       0.00011920      -0.00003909      -0.00000000       0.00221237      -0.00000000       0.00000000       0.00002248      -0.00000000      -0.00000000       0.00029173      -0.00035249      -0.00078595       0.00021535       0.00000000      -0.00015501       0.00029173      -0.00035249      -0.00078595       0.00029173      -0.00078595      -0.00035249       0.00116740      -0.00078595      -0.00078595       0.00011920       0.00000000       0.00003909      -0.00025034       0.00000000      -0.00000000       0.00021535      -0.00015501       0.00000000       0.00011920       0.00003909       0.00000000      -0.00062447       0.00000000       0.00000000       0.00011920       0.00003909       0.00000000       0.00029173      -0.00078595      -0.00035249      -0.00025034       0.00000000       0.00000000       0.00011920       0.00000000       0.00003909       0.00116740      -0.00078595      -0.00078595      -0.00006677       0.00000000      -0.00000000       0.01445471       0.00000000      -0.01600038       0.00116740       0.00078595      -0.00078595       0.00029173       0.00078595       0.00035249       0.01445471      -0.01600038      -0.00000000       0.00221237      -0.00000000       0.00000000       0.00011920      -0.00003909      -0.00000000      -0.00072602       0.00000000      -0.00000000       0.00116740      -0.00078595       0.00078595       0.00011920       0.00000000      -0.00003909      -0.00025034       0.00000000       0.00000000       0.00029173      -0.00078595       0.00035249       0.00029173       0.00035249       0.00078595      -0.00072602       0.00000000      -0.00000000       0.00029173       0.00035249      -0.00078595       0.00032316      -0.00000000      -0.00000000 </v>
    <v>       0.00000000      -0.13177859       0.00000000       0.01600038       0.01445471      -0.00000000       0.00015501       0.00021535      -0.00000000       0.01600038       0.01445471       0.00000000       0.00000000      -0.00006677      -0.00000000       0.00078595       0.00029173       0.00035249       0.00078595       0.00116740      -0.00078595       0.00000000       0.01445471      -0.01600038      -0.00000000       0.00002248      -0.00000000      -0.00035249       0.00029173      -0.00078595       0.00000000       0.00021535      -0.00015501      -0.00035249       0.00029173      -0.00078595      -0.00000000      -0.00006677       0.00000000      -0.00000000       0.01445471      -0.01600038       0.00078595       0.00116740      -0.00078595       0.00078595       0.00029173       0.00035249       0.00000000       0.01445471       0.01600038       0.00078595       0.00116740       0.00078595       0.00078595       0.00029173      -0.00035249       0.00000000      -0.00006677       0.00000000       0.00035249       0.00029173       0.00078595      -0.00000000       0.00032316      -0.00000000       0.00035249       0.00029173      -0.00078595       0.00000000      -0.00072602       0.00000000      -0.00078595       0.00029173      -0.00035249      -0.00078595       0.00116740      -0.00078595       0.00000000       0.00011920       0.00003909       0.00000000      -0.00025034      -0.00000000      -0.01600038       0.01445471       0.00000000       0.00000000       0.00221237      -0.00000000      -0.00003909       0.00011920       0.00000000      -0.00000000      -0.00072602       0.00000000      -0.00000000       0.00021535       0.00015501      -0.00035249       0.00029173       0.00078595       0.00000000       0.00002248      -0.00000000      -0.00035249       0.00029173       0.00078595      -0.00078595       0.00116740       0.00078595      -0.00078595       0.00029173       0.00035249       0.00000000      -0.00025034       0.00000000       0.00000000       0.00011920      -0.00003909      -0.00015501       0.00021535       0.00000000       0.00003909       0.00011920       0.00000000       0.00000000      -0.00062447      -0.00000000       0.00003909       0.00011920       0.00000000      -0.00078595       0.00116740       0.00078595       0.00000000       0.00011920      -0.00003909       0.00000000      -0.00025034       0.00000000      -0.00078595       0.00029173       0.00035249      -0.00000000       0.01445471       0.01600038      -0.00000000      -0.00006677      -0.00000000       0.00078595       0.00029173      -0.00035249       0.00078595       0.00116740       0.00078595      -0.01600038       0.01445471      -0.00000000      -0.00000000      -0.00072602       0.00000000      -0.00003909       0.00011920      -0.00000000       0.00000000       0.00221237      -0.00000000      -0.00078595       0.00029173      -0.00035249       0.00000000      -0.00025034      -0.00000000       0.00000000       0.00011920       0.00003909      -0.00078595       0.00116740      -0.00078595       0.00035249       0.00029173       0.00078595       0.00000000      -0.00072602       0.00000000       0.00035249       0.00029173      -0.00078595      -0.00000000       0.00032316      -0.00000000 </v>
    <v>       0.00000000       0.00000000      -0.13177859      -0.00000000       0.00000000      -0.00006677      -0.00000000      -0.00000000       0.00002248       0.00000000      -0.00000000      -0.00006677       0.01600038       0.00000000       0.01445471       0.00078595       0.00035249       0.00029173      -0.00035249      -0.00078595       0.00029173       0.00000000      -0.01600038       0.01445471       0.00015501      -0.00000000       0.00021535       0.00078595      -0.00078595       0.00116740      -0.00000000      -0.00015501       0.00021535       0.00078595      -0.00078595       0.00116740       0.01600038      -0.00000000       0.01445471      -0.00000000      -0.01600038       0.01445471      -0.00035249      -0.00078595       0.00029173       0.00078595       0.00035249       0.00029173      -0.00000000       0.01600038       0.01445471       0.00035249       0.00078595       0.00029173      -0.00078595      -0.00035249       0.00029173      -0.01600038      -0.00000000       0.01445471       0.00078595       0.00078595       0.00116740      -0.00000000      -0.00000000       0.00032316      -0.00078595      -0.00078595       0.00116740      -0.00000000       0.00000000       0.00221237       0.00078595      -0.00035249       0.00029173       0.00035249      -0.00078595       0.00029173       0.00000000       0.00003909       0.00011920      -0.00003909      -0.00000000       0.00011920      -0.00000000      -0.00000000      -0.00006677      -0.00000000      -0.00000000      -0.00072602      -0.00000000      -0.00000000      -0.00025034       0.00000000       0.00000000      -0.00072602      -0.00000000       0.00015501       0.00021535      -0.00078595       0.00078595       0.00116740      -0.00015501      -0.00000000       0.00021535      -0.00078595       0.00078595       0.00116740      -0.00035249       0.00078595       0.00029173      -0.00078595       0.00035249       0.00029173       0.00003909       0.00000000       0.00011920       0.00000000      -0.00003909       0.00011920       0.00000000       0.00000000       0.00002248       0.00000000       0.00000000      -0.00025034       0.00000000      -0.00000000      -0.00062447       0.00000000       0.00000000      -0.00025034      -0.00035249       0.00078595       0.00029173      -0.00000000      -0.00003909       0.00011920       0.00003909       0.00000000       0.00011920      -0.00078595       0.00035249       0.00029173       0.00000000       0.01600038       0.01445471      -0.01600038       0.00000000       0.01445471      -0.00078595      -0.00035249       0.00029173       0.00035249       0.00078595       0.00029173       0.00000000       0.00000000      -0.00006677       0.00000000       0.00000000      -0.00072602      -0.00000000       0.00000000      -0.00025034      -0.00000000      -0.00000000      -0.00072602       0.00078595      -0.00035249       0.00029173      -0.00003909      -0.00000000       0.00011920       0.00000000       0.00003909       0.00011920       0.00035249      -0.00078595       0.00029173       0.00078595       0.00078595       0.00116740      -0.00000000       0.00000000       0.00221237      -0.00078595      -0.00078595       0.00116740      -0.00000000      -0.00000000       0.00032316 </v>
    <v>       0.01445471       0.01600038      -0.00000000      -0.13177859       0.00000000       0.00000000       0.01445471       0.01600038       0.00000000       0.00021535       0.00015501      -0.00000000      -0.00006677      -0.00000000      -0.00000000       0.01445471      -0.00000000       0.01600038       0.00116740       0.00078595       0.00078595       0.00029173       0.00078595      -0.00035249       0.00029173      -0.00035249       0.00078595       0.00021535      -0.00000000       0.00015501       0.00029173      -0.00035249       0.00078595       0.00002248       0.00000000      -0.00000000       0.00116740       0.00078595       0.00078595       0.01445471       0.00000000       0.01600038      -0.00006677       0.00000000       0.00000000       0.00029173       0.00078595      -0.00035249       0.01445471      -0.00000000      -0.01600038      -0.00006677      -0.00000000       0.00000000       0.00029173       0.00078595       0.00035249       0.00116740       0.00078595      -0.00078595      -0.00072602       0.00000000      -0.00000000       0.00029173       0.00035249       0.00078595       0.00032316      -0.00000000      -0.00000000       0.00029173       0.00035249      -0.00078595       0.00011920       0.00000000      -0.00003909       0.00116740      -0.00078595       0.00078595       0.00029173      -0.00078595       0.00035249      -0.00025034       0.00000000       0.00000000       0.00221237      -0.00000000       0.00000000       0.01445471      -0.01600038       0.00000000      -0.00072602       0.00000000      -0.00000000       0.00011920      -0.00003909      -0.00000000       0.00029173      -0.00035249      -0.00078595       0.00002248      -0.00000000      -0.00000000       0.00029173      -0.00035249      -0.00078595       0.00021535       0.00000000      -0.00015501      -0.00025034       0.00000000      -0.00000000       0.00029173      -0.00078595      -0.00035249       0.00116740      -0.00078595      -0.00078595       0.00011920       0.00000000       0.00003909       0.00011920       0.00003909       0.00000000       0.00021535      -0.00015501       0.00000000       0.00011920       0.00003909       0.00000000      -0.00062447       0.00000000       0.00000000       0.00116740      -0.00078595      -0.00078595       0.00029173      -0.00078595      -0.00035249      -0.00025034       0.00000000       0.00000000       0.00011920       0.00000000       0.00003909       0.00029173       0.00078595       0.00035249      -0.00006677       0.00000000      -0.00000000       0.01445471       0.00000000      -0.01600038       0.00116740       0.00078595      -0.00078595      -0.00072602       0.00000000      -0.00000000       0.01445471      -0.01600038      -0.00000000       0.00221237      -0.00000000       0.00000000       0.00011920      -0.00003909      -0.00000000       0.00029173      -0.00078595       0.00035249       0.00116740      -0.00078595       0.00078595       0.00011920       0.00000000      -0.00003909      -0.00025034       0.00000000       0.00000000       0.00032316      -0.00000000      -0.00000000       0.00029173       0.00035249       0.00078595      -0.00072602       0.00000000      -0.00000000       0.00029173       0.00035249      -0.00078595 </v>
    <v>       0.01600038       0.01445471       0.00000000       0.00000000      -0.13177859       0.00000000       0.01600038       0.01445471      -0.00000000       0.00015501       0.00021535      -0.00000000       0.00000000       0.01445471      -0.01600038       0.00000000      -0.00006677      -0.00000000       0.00078595       0.00029173       0.00035249       0.00078595       0.00116740      -0.00078595      -0.00035249       0.00029173      -0.00078595      -0.00000000       0.00002248      -0.00000000      -0.00035249       0.00029173      -0.00078595       0.00000000       0.00021535      -0.00015501       0.00078595       0.00029173       0.00035249      -0.00000000      -0.00006677       0.00000000      -0.00000000       0.01445471      -0.01600038       0.00078595       0.00116740      -0.00078595       0.00000000      -0.00006677       0.00000000       0.00000000       0.01445471       0.01600038       0.00078595       0.00116740       0.00078595       0.00078595       0.00029173      -0.00035249       0.00000000      -0.00072602       0.00000000       0.00035249       0.00029173       0.00078595      -0.00000000       0.00032316      -0.00000000       0.00035249       0.00029173      -0.00078595       0.00000000      -0.00025034      -0.00000000      -0.00078595       0.00029173      -0.00035249      -0.00078595       0.00116740      -0.00078595       0.00000000       0.00011920       0.00003909      -0.00000000      -0.00072602       0.00000000      -0.01600038       0.01445471       0.00000000       0.00000000       0.00221237      -0.00000000      -0.00003909       0.00011920       0.00000000      -0.00035249       0.00029173       0.00078595      -0.00000000       0.00021535       0.00015501      -0.00035249       0.00029173       0.00078595       0.00000000       0.00002248      -0.00000000       0.00000000       0.00011920      -0.00003909      -0.00078595       0.00116740       0.00078595      -0.00078595       0.00029173       0.00035249       0.00000000      -0.00025034       0.00000000       0.00003909       0.00011920       0.00000000      -0.00015501       0.00021535       0.00000000       0.00003909       0.00011920       0.00000000       0.00000000      -0.00062447      -0.00000000      -0.00078595       0.00029173       0.00035249      -0.00078595       0.00116740       0.00078595       0.00000000       0.00011920      -0.00003909       0.00000000      -0.00025034       0.00000000       0.00078595       0.00116740       0.00078595      -0.00000000       0.01445471       0.01600038      -0.00000000      -0.00006677      -0.00000000       0.00078595       0.00029173      -0.00035249       0.00000000       0.00221237      -0.00000000      -0.01600038       0.01445471      -0.00000000      -0.00000000      -0.00072602       0.00000000      -0.00003909       0.00011920      -0.00000000      -0.00078595       0.00116740      -0.00078595      -0.00078595       0.00029173      -0.00035249       0.00000000      -0.00025034      -0.00000000       0.00000000       0.00011920       0.00003909      -0.00000000       0.00032316      -0.00000000       0.00035249       0.00029173       0.00078595       0.00000000      -0.00072602       0.00000000       0.00035249       0.00029173      -0.00078595 </v>
    <v>       0.00000000      -0.00000000      -0.00006677       0.00000000       0.00000000      -0.13177859      -0.00000000       0.00000000      -0.00006677      -0.00000000      -0.00000000       0.00002248       0.00000000      -0.01600038       0.01445471       0.01600038       0.00000000       0.01445471       0.00078595       0.00035249       0.00029173      -0.00035249      -0.00078595       0.00029173       0.00078595      -0.00078595       0.00116740       0.00015501      -0.00000000       0.00021535       0.00078595      -0.00078595       0.00116740      -0.00000000      -0.00015501       0.00021535       0.00078595       0.00035249       0.00029173       0.01600038      -0.00000000       0.01445471      -0.00000000      -0.01600038       0.01445471      -0.00035249      -0.00078595       0.00029173      -0.01600038      -0.00000000       0.01445471      -0.00000000       0.01600038       0.01445471       0.00035249       0.00078595       0.00029173      -0.00078595      -0.00035249       0.00029173      -0.00000000       0.00000000       0.00221237       0.00078595       0.00078595       0.00116740      -0.00000000      -0.00000000       0.00032316      -0.00078595      -0.00078595       0.00116740      -0.00003909      -0.00000000       0.00011920       0.00078595      -0.00035249       0.00029173       0.00035249      -0.00078595       0.00029173       0.00000000       0.00003909       0.00011920       0.00000000       0.00000000      -0.00072602      -0.00000000      -0.00000000      -0.00006677      -0.00000000      -0.00000000      -0.00072602      -0.00000000      -0.00000000      -0.00025034      -0.00078595       0.00078595       0.00116740      -0.00000000       0.00015501       0.00021535      -0.00078595       0.00078595       0.00116740      -0.00015501      -0.00000000       0.00021535       0.00000000      -0.00003909       0.00011920      -0.00035249       0.00078595       0.00029173      -0.00078595       0.00035249       0.00029173       0.00003909       0.00000000       0.00011920       0.00000000       0.00000000      -0.00025034       0.00000000       0.00000000       0.00002248       0.00000000       0.00000000      -0.00025034       0.00000000      -0.00000000      -0.00062447      -0.00078595       0.00035249       0.00029173      -0.00035249       0.00078595       0.00029173      -0.00000000      -0.00003909       0.00011920       0.00003909       0.00000000       0.00011920       0.00035249       0.00078595       0.00029173       0.00000000       0.01600038       0.01445471      -0.01600038       0.00000000       0.01445471      -0.00078595      -0.00035249       0.00029173      -0.00000000      -0.00000000      -0.00072602       0.00000000       0.00000000      -0.00006677       0.00000000       0.00000000      -0.00072602      -0.00000000       0.00000000      -0.00025034       0.00035249      -0.00078595       0.00029173       0.00078595      -0.00035249       0.00029173      -0.00003909      -0.00000000       0.00011920       0.00000000       0.00003909       0.00011920      -0.00000000      -0.00000000       0.00032316       0.00078595       0.00078595       0.00116740      -0.00000000       0.00000000       0.00221237      -0.00078595      -0.00078595       0.00116740 </v>
    <v>       0.00021535       0.00015501      -0.00000000       0.01445471       0.01600038      -0.00000000      -0.13177859       0.00000000       0.00000000       0.01445471       0.01600038       0.00000000       0.00029173       0.00078595      -0.00035249      -0.00006677      -0.00000000      -0.00000000       0.01445471      -0.00000000       0.01600038       0.00116740       0.00078595       0.00078595       0.00002248       0.00000000      -0.00000000       0.00029173      -0.00035249       0.00078595       0.00021535      -0.00000000       0.00015501       0.00029173      -0.00035249       0.00078595       0.00029173       0.00078595      -0.00035249       0.00116740       0.00078595       0.00078595       0.01445471       0.00000000       0.01600038      -0.00006677       0.00000000       0.00000000       0.00116740       0.00078595      -0.00078595       0.01445471      -0.00000000      -0.01600038      -0.00006677      -0.00000000       0.00000000       0.00029173       0.00078595       0.00035249       0.00029173       0.00035249      -0.00078595      -0.00072602       0.00000000      -0.00000000       0.00029173       0.00035249       0.00078595       0.00032316      -0.00000000      -0.00000000      -0.00025034       0.00000000       0.00000000       0.00011920       0.00000000      -0.00003909       0.00116740      -0.00078595       0.00078595       0.00029173      -0.00078595       0.00035249       0.00011920      -0.00003909      -0.00000000       0.00221237      -0.00000000       0.00000000       0.01445471      -0.01600038       0.00000000      -0.00072602       0.00000000      -0.00000000       0.00021535       0.00000000      -0.00015501       0.00029173      -0.00035249      -0.00078595       0.00002248      -0.00000000      -0.00000000       0.00029173      -0.00035249      -0.00078595       0.00011920       0.00000000       0.00003909      -0.00025034       0.00000000      -0.00000000       0.00029173      -0.00078595      -0.00035249       0.00116740      -0.00078595      -0.00078595      -0.00062447       0.00000000       0.00000000       0.00011920       0.00003909       0.00000000       0.00021535      -0.00015501       0.00000000       0.00011920       0.00003909       0.00000000       0.00011920       0.00000000       0.00003909       0.00116740      -0.00078595      -0.00078595       0.00029173      -0.00078595      -0.00035249      -0.00025034       0.00000000       0.00000000       0.00116740       0.00078595      -0.00078595       0.00029173       0.00078595       0.00035249      -0.00006677       0.00000000      -0.00000000       0.01445471       0.00000000      -0.01600038       0.00011920      -0.00003909      -0.00000000      -0.00072602       0.00000000      -0.00000000       0.01445471      -0.01600038      -0.00000000       0.00221237      -0.00000000       0.00000000      -0.00025034       0.00000000       0.00000000       0.00029173      -0.00078595       0.00035249       0.00116740      -0.00078595       0.00078595       0.00011920       0.00000000      -0.00003909       0.00029173       0.00035249      -0.00078595       0.00032316      -0.00000000      -0.00000000       0.00029173       0.00035249       0.00078595      -0.00072602       0.00000000      -0.00000000 </v>
    <v>       0.00015501       0.00021535      -0.00000000       0.01600038       0.01445471       0.00000000       0.00000000      -0.13177859       0.00000000       0.01600038       0.01445471      -0.00000000       0.00078595       0.00116740      -0.00078595       0.00000000       0.01445471      -0.01600038       0.00000000      -0.00006677      -0.00000000       0.00078595       0.00029173       0.00035249       0.00000000       0.00021535      -0.00015501      -0.00035249       0.00029173      -0.00078595      -0.00000000       0.00002248      -0.00000000      -0.00035249       0.00029173      -0.00078595       0.00078595       0.00116740      -0.00078595       0.00078595       0.00029173       0.00035249      -0.00000000      -0.00006677       0.00000000      -0.00000000       0.01445471      -0.01600038       0.00078595       0.00029173      -0.00035249       0.00000000      -0.00006677       0.00000000       0.00000000       0.01445471       0.01600038       0.00078595       0.00116740       0.00078595       0.00035249       0.00029173      -0.00078595       0.00000000      -0.00072602       0.00000000       0.00035249       0.00029173       0.00078595      -0.00000000       0.00032316      -0.00000000       0.00000000       0.00011920       0.00003909       0.00000000      -0.00025034      -0.00000000      -0.00078595       0.00029173      -0.00035249      -0.00078595       0.00116740      -0.00078595      -0.00003909       0.00011920       0.00000000      -0.00000000      -0.00072602       0.00000000      -0.01600038       0.01445471       0.00000000       0.00000000       0.00221237      -0.00000000       0.00000000       0.00002248      -0.00000000      -0.00035249       0.00029173       0.00078595      -0.00000000       0.00021535       0.00015501      -0.00035249       0.00029173       0.00078595       0.00000000      -0.00025034       0.00000000       0.00000000       0.00011920      -0.00003909      -0.00078595       0.00116740       0.00078595      -0.00078595       0.00029173       0.00035249       0.00000000      -0.00062447      -0.00000000       0.00003909       0.00011920       0.00000000      -0.00015501       0.00021535       0.00000000       0.00003909       0.00011920       0.00000000       0.00000000      -0.00025034       0.00000000      -0.00078595       0.00029173       0.00035249      -0.00078595       0.00116740       0.00078595       0.00000000       0.00011920      -0.00003909       0.00078595       0.00029173      -0.00035249       0.00078595       0.00116740       0.00078595      -0.00000000       0.01445471       0.01600038      -0.00000000      -0.00006677      -0.00000000      -0.00003909       0.00011920      -0.00000000       0.00000000       0.00221237      -0.00000000      -0.01600038       0.01445471      -0.00000000      -0.00000000      -0.00072602       0.00000000       0.00000000       0.00011920       0.00003909      -0.00078595       0.00116740      -0.00078595      -0.00078595       0.00029173      -0.00035249       0.00000000      -0.00025034      -0.00000000       0.00035249       0.00029173      -0.00078595      -0.00000000       0.00032316      -0.00000000       0.00035249       0.00029173       0.00078595       0.00000000      -0.00072602       0.00000000 </v>
    <v>      -0.00000000      -0.00000000       0.00002248       0.00000000      -0.00000000      -0.00006677       0.00000000       0.00000000      -0.13177859      -0.00000000       0.00000000      -0.00006677      -0.00035249      -0.00078595       0.00029173       0.00000000      -0.01600038       0.01445471       0.01600038       0.00000000       0.01445471       0.00078595       0.00035249       0.00029173      -0.00000000      -0.00015501       0.00021535       0.00078595      -0.00078595       0.00116740       0.00015501      -0.00000000       0.00021535       0.00078595      -0.00078595       0.00116740      -0.00035249      -0.00078595       0.00029173       0.00078595       0.00035249       0.00029173       0.01600038      -0.00000000       0.01445471      -0.00000000      -0.01600038       0.01445471      -0.00078595      -0.00035249       0.00029173      -0.01600038      -0.00000000       0.01445471      -0.00000000       0.01600038       0.01445471       0.00035249       0.00078595       0.00029173      -0.00078595      -0.00078595       0.00116740      -0.00000000       0.00000000       0.00221237       0.00078595       0.00078595       0.00116740      -0.00000000      -0.00000000       0.00032316       0.00000000       0.00003909       0.00011920      -0.00003909      -0.00000000       0.00011920       0.00078595      -0.00035249       0.00029173       0.00035249      -0.00078595       0.00029173      -0.00000000      -0.00000000      -0.00025034       0.00000000       0.00000000      -0.00072602      -0.00000000      -0.00000000      -0.00006677      -0.00000000      -0.00000000      -0.00072602      -0.00015501      -0.00000000       0.00021535      -0.00078595       0.00078595       0.00116740      -0.00000000       0.00015501       0.00021535      -0.00078595       0.00078595       0.00116740       0.00003909       0.00000000       0.00011920       0.00000000      -0.00003909       0.00011920      -0.00035249       0.00078595       0.00029173      -0.00078595       0.00035249       0.00029173       0.00000000      -0.00000000      -0.00062447       0.00000000       0.00000000      -0.00025034       0.00000000       0.00000000       0.00002248       0.00000000       0.00000000      -0.00025034       0.00003909       0.00000000       0.00011920      -0.00078595       0.00035249       0.00029173      -0.00035249       0.00078595       0.00029173      -0.00000000      -0.00003909       0.00011920      -0.00078595      -0.00035249       0.00029173       0.00035249       0.00078595       0.00029173       0.00000000       0.01600038       0.01445471      -0.01600038       0.00000000       0.01445471      -0.00000000       0.00000000      -0.00025034      -0.00000000      -0.00000000      -0.00072602       0.00000000       0.00000000      -0.00006677       0.00000000       0.00000000      -0.00072602       0.00000000       0.00003909       0.00011920       0.00035249      -0.00078595       0.00029173       0.00078595      -0.00035249       0.00029173      -0.00003909      -0.00000000       0.00011920      -0.00078595      -0.00078595       0.00116740      -0.00000000      -0.00000000       0.00032316       0.00078595       0.00078595       0.00116740      -0.00000000       0.00000000       0.00221237 </v>
    <v>       0.01445471       0.01600038       0.00000000       0.00021535       0.00015501      -0.00000000       0.01445471       0.01600038      -0.00000000      -0.13177859       0.00000000       0.00000000       0.00116740       0.00078595       0.00078595       0.00029173       0.00078595      -0.00035249      -0.00006677      -0.00000000      -0.00000000       0.01445471      -0.00000000       0.01600038       0.00029173      -0.00035249       0.00078595       0.00002248       0.00000000      -0.00000000       0.00029173      -0.00035249       0.00078595       0.00021535      -0.00000000       0.00015501      -0.00006677       0.00000000       0.00000000       0.00029173       0.00078595      -0.00035249       0.00116740       0.00078595       0.00078595       0.01445471       0.00000000       0.01600038       0.00029173       0.00078595       0.00035249       0.00116740       0.00078595      -0.00078595       0.01445471      -0.00000000      -0.01600038      -0.00006677      -0.00000000       0.00000000       0.00032316      -0.00000000      -0.00000000       0.00029173       0.00035249      -0.00078595      -0.00072602       0.00000000      -0.00000000       0.00029173       0.00035249       0.00078595       0.00029173      -0.00078595       0.00035249      -0.00025034       0.00000000       0.00000000       0.00011920       0.00000000      -0.00003909       0.00116740      -0.00078595       0.00078595      -0.00072602       0.00000000      -0.00000000       0.00011920      -0.00003909      -0.00000000       0.00221237      -0.00000000       0.00000000       0.01445471      -0.01600038       0.00000000       0.00029173      -0.00035249      -0.00078595       0.00021535       0.00000000      -0.00015501       0.00029173      -0.00035249      -0.00078595       0.00002248      -0.00000000      -0.00000000       0.00116740      -0.00078595      -0.00078595       0.00011920       0.00000000       0.00003909      -0.00025034       0.00000000      -0.00000000       0.00029173      -0.00078595      -0.00035249       0.00011920       0.00003909       0.00000000      -0.00062447       0.00000000       0.00000000       0.00011920       0.00003909       0.00000000       0.00021535      -0.00015501       0.00000000      -0.00025034       0.00000000       0.00000000       0.00011920       0.00000000       0.00003909       0.00116740      -0.00078595      -0.00078595       0.00029173      -0.00078595      -0.00035249       0.01445471       0.00000000      -0.01600038       0.00116740       0.00078595      -0.00078595       0.00029173       0.00078595       0.00035249      -0.00006677       0.00000000      -0.00000000       0.00221237      -0.00000000       0.00000000       0.00011920      -0.00003909      -0.00000000      -0.00072602       0.00000000      -0.00000000       0.01445471      -0.01600038      -0.00000000       0.00011920       0.00000000      -0.00003909      -0.00025034       0.00000000       0.00000000       0.00029173      -0.00078595       0.00035249       0.00116740      -0.00078595       0.00078595      -0.00072602       0.00000000      -0.00000000       0.00029173       0.00035249      -0.00078595       0.00032316      -0.00000000      -0.00000000       0.00029173       0.00035249       0.00078595 </v>
[...]
       <r>    22.1099     0.0000   648.0000 </r>
       <r>    22.3932     0.0000   648.0000 </r>
       <r>    22.6765     0.0000   648.0000 </r>
       <r>    22.9598     0.0000   648.0000 </r>
       <r>    23.2430     0.0000   648.0000 </r>
       <r>    23.5263     0.0000   648.0000 </r>
       <r>    23.8096     0.0000   648.0000 </r>
       <r>    24.0929     0.0000   648.0000 </r>
       <r>    24.3761     0.0000   648.0000 </r>
      </set>
      <set comment="spin 2">
       <r>   -60.6069     0.0000     0.0000 </r>
       <r>   -60.3237     0.0000     0.0000 </r>
       <r>   -60.0404     0.0000     0.0000 </r>
       <r>   -59.7571     0.0000     0.0000 </r>
       <r>   -59.4738     0.0000     0.0000 </r>
       <r>   -59.1906     0.0000     0.0000 </r>
       <r>   -58.9073     0.0000     0.0000 </r>
       <r>   -58.6240     0.0000     0.0000 </r>
       <r>   -58.3407     0.0000     0.0000 </r>
       <r>   -58.0574     0.0000     0.0000 </r>
       <r>   -57.7742     0.0000     0.0000 </r>
       <r>   -57.4909    -0.0000    -0.0000 </r>
       <r>   -57.2076    -0.0000    -0.0000 </r>
       <r>   -56.9243    -0.0000    -0.0000 </r>
       <r>   -56.6411    -0.0000    -0.0000 </r>
       <r>   -56.3578    -0.0858    -0.0243 </r>
       <r>   -56.0745   -13.2712    -3.7837 </r>
       <r>   -55.7912   217.9580    57.9587 </r>
       <r>   -55.5080   489.0820   196.5044 </r>
       <r>   -55.2247   -15.0121   192.2518 </r>
       <r>   -54.9414    -0.8887   192.0001 </r>
       <r>   -54.6581    -0.0003   192.0000 </r>
       <r>   -54.3748    -0.0000   192.0000 </r>
       <r>   -54.0916     0.0000   192.0000 </r>
       <r>   -53.8083     0.0000   192.0000 </r>
       <r>   -53.5250     0.0000   192.0000 </r>
       <r>   -53.2417     0.0000   192.0000 </r>
       <r>   -52.9585     0.0000   192.0000 </r>
       <r>   -52.6752     0.0000   192.0000 </r>
       <r>   -52.3919     0.0000   192.0000 </r>
       <r>   -52.1086     0.0000   192.0000 </r>
       <r>   -51.8254     0.0000   192.0000 </r>
       <r>   -51.5421     0.0000   192.0000 </r>
       <r>   -51.2588     0.0000   192.0000 </r>
       <r>   -50.9755     0.0000   192.0000 </r>
       <r>   -50.6922     0.0000   192.0000 </r>
       <r>   -50.4090     0.0000   192.0000 </r>
       <r>   -50.1257     0.0000   192.0000 </r>
       <r>   -49.8424     0.0000   192.0000 </r>
       <r>   -49.5591     0.0000   192.0000 </r>
       <r>   -49.2759     0.0000   192.0000 </r>
       <r>   -48.9926     0.0000   192.0000 </r>
       <r>   -48.7093     0.0000   192.0000 </r>
       <r>   -48.4260     0.0000   192.0000 </r>
       <r>   -48.1428     0.0000   192.0000 </r>
       <r>   -47.8595     0.0000   192.0000 </r>
       <r>   -47.5762     0.0000   192.0000 </r>
       <r>   -47.2929     0.0000   192.0000 </r>
       <r>   -47.0096     0.0000   192.0000 </r>
       <r>   -46.7264     0.0000   192.0000 </r>
       <r>   -46.4431     0.0000   192.0000 </r>
       <r>   -46.1598     0.0000   192.0000 </r>
       <r>   -45.8765     0.0000   192.0000 </r>
       <r>   -45.5933     0.0000   192.0000 </r>
       <r>   -45.3100     0.0000   192.0000 </r>
       <r>   -45.0267     0.0000   192.0000 </r>
       <r>   -44.7434     0.0000   192.0000 </r>
       <r>   -44.4602     0.0000   192.0000 </r>
       <r>   -44.1769     0.0000   192.0000 </r>
       <r>   -43.8936     0.0000   192.0000 </r>
       <r>   -43.6103     0.0000   192.0000 </r>
       <r>   -43.3270     0.0000   192.0000 </r>
       <r>   -43.0438     0.0000   192.0000 </r>
       <r>   -42.7605     0.0000   192.0000 </r>
       <r>   -42.4772     0.0000   192.0000 </r>
       <r>   -42.1939     0.0000   192.0000 </r>
       <r>   -41.9107     0.0000   192.0000 </r>
       <r>   -41.6274     0.0000   192.0000 </r>
       <r>   -41.3441     0.0000   192.0000 </r>
       <r>   -41.0608     0.0000   192.0000 </r>
       <r>   -40.7776     0.0000   192.0000 </r>
       <r>   -40.4943     0.0000   192.0000 </r>
       <r>   -40.2110     0.0000   192.0000 </r>
       <r>   -39.9277     0.0000   192.0000 </r>
       <r>   -39.6444     0.0000   192.0000 </r>
       <r>   -39.3612     0.0000   192.0000 </r>
       <r>   -39.0779     0.0000   192.0000 </r>
       <r>   -38.7946     0.0000   192.0000 </r>
       <r>   -38.5113     0.0000   192.0000 </r>
       <r>   -38.2281     0.0000   192.0000 </r>
       <r>   -37.9448     0.0000   192.0000 </r>
       <r>   -37.6615     0.0000   192.0000 </r>
       <r>   -37.3782     0.0000   192.0000 </r>
       <r>   -37.0950     0.0000   192.0000 </r>
       <r>   -36.8117     0.0000   192.0000 </r>
       <r>   -36.5284     0.0000   192.0000 </r>
       <r>   -36.2451     0.0000   192.0000 </r>
       <r>   -35.9618     0.0000   192.0000 </r>
       <r>   -35.6786     0.0000   192.0000 </r>
       <r>   -35.3953     0.0000   192.0000 </r>
       <r>   -35.1120     0.0000   192.0000 </r>
       <r>   -34.8287     0.0000   192.0000 </r>
       <r>   -34.5455     0.0000   192.0000 </r>
       <r>   -34.2622     0.0000   192.0000 </r>
       <r>   -33.9789     0.0000   192.0000 </r>
       <r>   -33.6956     0.0000   192.0000 </r>
       <r>   -33.4124     0.0000   192.0000 </r>
       <r>   -33.1291     0.0000   192.0000 </r>
       <r>   -32.8458     0.0000   192.0000 </r>
       <r>   -32.5625     0.0000   192.0000 </r>
       <r>   -32.2792     0.0000   192.0000 </r>
       <r>   -31.9960     0.0000   192.0000 </r>
       <r>   -31.7127     0.0000   192.0000 </r>
       <r>   -31.4294     0.0000   192.0000 </r>
       <r>   -31.1461     0.0000   192.0000 </r>
       <r>   -30.8629     0.0000   192.0000 </r>
       <r>   -30.5796     0.0000   192.0000 </r>
       <r>   -30.2963     0.0000   192.0000 </r>
       <r>   -30.0130     0.0000   192.0000 </r>
       <r>   -29.7298     0.0000   192.0000 </r>
       <r>   -29.4465     0.0000   192.0000 </r>
       <r>   -29.1632     0.0000   192.0000 </r>
       <r>   -28.8799     0.0000   192.0000 </r>
       <r>   -28.5966     0.0000   192.0000 </r>
       <r>   -28.3134     0.0000   192.0000 </r>
       <r>   -28.0301     0.0000   192.0000 </r>
       <r>   -27.7468     0.0000   192.0000 </r>
       <r>   -27.4635     0.0000   192.0000 </r>
       <r>   -27.1803     0.0000   192.0000 </r>
       <r>   -26.8970     0.0000   192.0000 </r>
       <r>   -26.6137     0.0000   192.0000 </r>
       <r>   -26.3304     0.0000   192.0000 </r>
       <r>   -26.0472     0.0000   192.0000 </r>
       <r>   -25.7639     0.0000   192.0000 </r>
       <r>   -25.4806     0.0000   192.0000 </r>
       <r>   -25.1973     0.0000   192.0000 </r>
       <r>   -24.9140     0.0000   192.0000 </r>
       <r>   -24.6308     0.0000   192.0000 </r>
       <r>   -24.3475     0.0000   192.0000 </r>
       <r>   -24.0642     0.0000   192.0000 </r>
       <r>   -23.7809     0.0000   192.0000 </r>
       <r>   -23.4977     0.0000   192.0000 </r>
       <r>   -23.2144     0.0000   192.0000 </r>
       <r>   -22.9311     0.0000   192.0000 </r>
       <r>   -22.6478     0.0000   192.0000 </r>
       <r>   -22.3646     0.0000   192.0000 </r>
       <r>   -22.0813     0.0000   192.0000 </r>
       <r>   -21.7980     0.0000   192.0000 </r>
       <r>   -21.5147     0.0000   192.0000 </r>
       <r>   -21.2314     0.0000   192.0000 </r>
       <r>   -20.9482     0.0000   192.0000 </r>
       <r>   -20.6649     0.0000   192.0000 </r>
       <r>   -20.3816     0.0000   192.0000 </r>
       <r>   -20.0983     0.0000   192.0000 </r>
       <r>   -19.8151     0.0000   192.0000 </r>
       <r>   -19.5318     0.0000   192.0000 </r>
       <r>   -19.2485     0.0000   192.0000 </r>
       <r>   -18.9652     0.0000   192.0000 </r>
       <r>   -18.6820     0.0000   192.0000 </r>
       <r>   -18.3987     0.0000   192.0000 </r>
       <r>   -18.1154     0.0000   192.0000 </r>
       <r>   -17.8321     0.0000   192.0000 </r>
       <r>   -17.5488     0.0000   192.0000 </r>
       <r>   -17.2656     0.0000   192.0000 </r>
       <r>   -16.9823     0.0000   192.0000 </r>
       <r>   -16.6990     0.0000   192.0000 </r>
       <r>   -16.4157     0.0000   192.0000 </r>
       <r>   -16.1325     0.0000   192.0000 </r>
       <r>   -15.8492     0.0000   192.0000 </r>
       <r>   -15.5659     0.0000   192.0000 </r>
       <r>   -15.2826     0.0000   192.0000 </r>
       <r>   -14.9994     0.0000   192.0000 </r>
       <r>   -14.7161     0.0000   192.0000 </r>
       <r>   -14.4328     0.0000   192.0000 </r>
       <r>   -14.1495     0.0000   192.0000 </r>
       <r>   -13.8662     0.0000   192.0000 </r>
       <r>   -13.5830     0.0000   192.0000 </r>
       <r>   -13.2997     0.0000   192.0000 </r>
       <r>   -13.0164     0.0000   192.0000 </r>
       <r>   -12.7331     0.0000   192.0000 </r>
       <r>   -12.4499     0.0000   192.0000 </r>
       <r>   -12.1666     0.0000   192.0000 </r>
       <r>   -11.8833     0.0000   192.0000 </r>
       <r>   -11.6000     0.0000   192.0000 </r>
       <r>   -11.3168     0.0000   192.0000 </r>
       <r>   -11.0335     0.0000   192.0000 </r>
       <r>   -10.7502     0.0000   192.0000 </r>
       <r>   -10.4669     0.0000   192.0000 </r>
       <r>   -10.1836     0.0000   192.0000 </r>
       <r>    -9.9004     0.0000   192.0000 </r>
       <r>    -9.6171     0.0000   192.0000 </r>
       <r>    -9.3338     0.0000   192.0000 </r>
       <r>    -9.0505     0.0000   192.0000 </r>
       <r>    -8.7673     0.0000   192.0000 </r>
       <r>    -8.4840     0.0000   192.0000 </r>
       <r>    -8.2007     0.0000   192.0000 </r>
       <r>    -7.9174     0.0000   192.0000 </r>
       <r>    -7.6342     0.0000   192.0000 </r>
       <r>    -7.3509     0.0000   192.0000 </r>
       <r>    -7.0676     0.0000   192.0000 </r>
       <r>    -6.7843     0.0000   192.0000 </r>
       <r>    -6.5010     0.0000   192.0000 </r>
       <r>    -6.2178     0.0000   192.0000 </r>
       <r>    -5.9345     0.0000   192.0000 </r>
       <r>    -5.6512     0.0000   192.0000 </r>
       <r>    -5.3679     0.0000   192.0000 </r>
       <r>    -5.0847     0.0000   192.0000 </r>
       <r>    -4.8014     0.0000   192.0000 </r>
       <r>    -4.5181     0.0000   192.0000 </r>
       <r>    -4.2348     0.0000   192.0000 </r>
       <r>    -3.9516     0.0000   192.0000 </r>
       <r>    -3.6683     0.0000   192.0000 </r>
       <r>    -3.3850    -0.0000   192.0000 </r>
       <r>    -3.1017    -0.0000   192.0000 </r>
       <r>    -2.8184    -0.0000   192.0000 </r>
       <r>    -2.5352    -0.0000   192.0000 </r>
       <r>    -2.2519    -0.0000   192.0000 </r>
       <r>    -1.9686    -0.0003   191.9999 </r>
       <r>    -1.6853    -0.0057   191.9983 </r>
       <r>    -1.4021     0.1036   192.0276 </r>
       <r>    -1.1188     1.4759   192.4457 </r>
       <r>    -0.8355     0.9395   192.7119 </r>
       <r>    -0.5522     3.0046   193.5630 </r>
       <r>    -0.2690     2.3255   194.2218 </r>
       <r>     0.0143     1.3764   194.6117 </r>
       <r>     0.2976     5.4055   196.1429 </r>
       <r>     0.5809     3.3115   197.0810 </r>
       <r>     0.8642     4.0682   198.2334 </r>
       <r>     1.1474     1.5184   198.6635 </r>
       <r>     1.4307     9.5212   201.3607 </r>
       <r>     1.7140     4.5265   202.6429 </r>
       <r>     1.9973     5.9767   204.3360 </r>
       <r>     2.2805     4.0468   205.4824 </r>
       <r>     2.5638    12.2976   208.9660 </r>
       <r>     2.8471    12.5415   212.5187 </r>
       <r>     3.1304    11.6506   215.8191 </r>
       <r>     3.4136    26.7505   223.3969 </r>
       <r>     3.6969    38.8757   234.4095 </r>
       <r>     3.9802    28.2650   242.4163 </r>
       <r>     4.2635    56.2204   258.3422 </r>
       <r>     4.5468    58.8509   275.0134 </r>
       <r>     4.8300    53.2584   290.1002 </r>
       <r>     5.1133    60.6097   307.2696 </r>
       <r>     5.3966    79.2873   329.7298 </r>
       <r>     5.6799    91.5810   355.6726 </r>
       <r>     5.9631    99.0031   383.7179 </r>
       <r>     6.2464    74.3806   404.7882 </r>
       <r>     6.5297    78.9732   427.1595 </r>
       <r>     6.8130    83.1553   450.7155 </r>
       <r>     7.0962    82.8985   474.1987 </r>
       <r>     7.3795   101.4640   502.9411 </r>
       <r>     7.6628    86.0211   527.3089 </r>
       <r>     7.9461    25.8359   534.6276 </r>
       <r>     8.2294    11.5066   537.8872 </r>
       <r>     8.5126     4.8212   539.2529 </r>
       <r>     8.7959    14.5086   543.3629 </r>
       <r>     9.0792    12.0389   546.7732 </r>
       <r>     9.3625    11.7473   550.1010 </r>
       <r>     9.6457     5.0590   551.5341 </r>
       <r>     9.9290     9.3513   554.1831 </r>
       <r>    10.2123    11.1905   557.3531 </r>
       <r>    10.4956     7.6872   559.5307 </r>
       <r>    10.7788     9.9665   562.3540 </r>
       <r>    11.0621     3.2126   563.2640 </r>
       <r>    11.3454    12.8383   566.9008 </r>
       <r>    11.6287     3.2579   567.8237 </r>
       <r>    11.9120    -0.2421   567.7551 </r>
       <r>    12.1952    10.0876   570.6127 </r>
       <r>    12.4785     5.3576   572.1304 </r>
       <r>    12.7618     3.2548   573.0524 </r>
       <r>    13.0451     5.7059   574.6687 </r>
       <r>    13.3283    11.7000   577.9831 </r>
       <r>    13.6116     8.6135   580.4231 </r>
       <r>    13.8949     9.4741   583.1069 </r>
       <r>    14.1782     7.2496   585.1605 </r>
       <r>    14.4614     8.2030   587.4843 </r>
       <r>    14.7447    11.5597   590.7589 </r>
       <r>    15.0280     5.9662   592.4490 </r>
       <r>    15.3113    12.7922   596.0727 </r>
       <r>    15.5946     9.9579   598.8935 </r>
       <r>    15.8778     3.2933   599.8264 </r>
       <r>    16.1611     7.8177   602.0410 </r>
       <r>    16.4444     9.5624   604.7498 </r>
       <r>    16.7277     7.0695   606.7525 </r>
       <r>    17.0109     9.7163   609.5049 </r>
       <r>    17.2942     8.8166   612.0024 </r>
       <r>    17.5775    12.7315   615.6089 </r>
       <r>    17.8608    18.4073   620.8233 </r>
       <r>    18.1440    11.8321   624.1751 </r>
       <r>    18.4273     9.4192   626.8433 </r>
       <r>    18.7106    13.2204   630.5883 </r>
       <r>    18.9939    13.6879   634.4658 </r>
       <r>    19.2772     3.7051   635.5154 </r>
       <r>    19.5604    16.3308   640.1415 </r>
       <r>    19.8437     9.4706   642.8243 </r>
       <r>    20.1270    10.7975   645.8830 </r>
       <r>    20.4103     4.4440   647.1419 </r>
       <r>    20.6935     3.1912   648.0459 </r>
       <r>    20.9768    -0.1589   648.0008 </r>
       <r>    21.2601    -0.0030   648.0000 </r>
       <r>    21.5434    -0.0000   648.0000 </r>
       <r>    21.8266    -0.0000   648.0000 </r>
       <r>    22.1099     0.0000   648.0000 </r>
       <r>    22.3932     0.0000   648.0000 </r>
       <r>    22.6765     0.0000   648.0000 </r>
       <r>    22.9598     0.0000   648.0000 </r>
       <r>    23.2430     0.0000   648.0000 </r>
       <r>    23.5263     0.0000   648.0000 </r>
       <r>    23.8096     0.0000   648.0000 </r>
       <r>    24.0929     0.0000   648.0000 </r>
       <r>    24.3761     0.0000   648.0000 </r>
      </set>
     </set>
    </array>
   </total>
  </dos>
 </calculation>
 <structure name="finalpos" >
  <crystal>
   <varray name="basis" >
    <v>       0.00000000       7.15575000       7.15575000 </v>
    <v>       7.15575000       0.00000000       7.15575000 </v>
    <v>       7.15575000       7.15575000       0.00000000 </v>
   </varray>
   <i name="volume">    732.81689501 </i>
   <varray name="rec_basis" >
    <v>      -0.06987388       0.06987388       0.06987388 </v>
    <v>       0.06987388      -0.06987388       0.06987388 </v>
    <v>       0.06987388       0.06987388      -0.06987388 </v>
   </varray>
  </crystal>
  <varray name="positions" >
   <v>       0.00000000       0.00000000       0.00000000 </v>
   <v>       0.00000000       0.00000000       0.25000000 </v>
   <v>       0.00000000       0.00000000       0.50000000 </v>
   <v>       0.00000000       0.00000000       0.75000000 </v>
   <v>       0.00000000       0.25000000       0.00000000 </v>
   <v>       0.00000000       0.25000000       0.25000000 </v>
   <v>       0.00000000       0.25000000       0.50000000 </v>
   <v>       0.00000000       0.25000000       0.75000000 </v>
   <v>       0.00000000       0.50000000       0.00000000 </v>
   <v>       0.00000000       0.50000000       0.25000000 </v>
   <v>       0.00000000       0.50000000       0.50000000 </v>
   <v>       0.00000000       0.50000000       0.75000000 </v>
   <v>       0.00000000       0.75000000       0.00000000 </v>
   <v>       0.00000000       0.75000000       0.25000000 </v>
   <v>       0.00000000       0.75000000       0.50000000 </v>
   <v>       0.00000000       0.75000000       0.75000000 </v>
   <v>       0.25000000       0.00000000       0.00000000 </v>
   <v>       0.25000000       0.00000000       0.25000000 </v>
   <v>       0.25000000       0.00000000       0.50000000 </v>
   <v>       0.25000000       0.00000000       0.75000000 </v>
   <v>       0.25000000       0.25000000       0.00000000 </v>
   <v>       0.25000000       0.25000000       0.25000000 </v>
   <v>       0.25000000       0.25000000       0.50000000 </v>
   <v>       0.25000000       0.25000000       0.75000000 </v>
   <v>       0.25000000       0.50000000       0.00000000 </v>
   <v>       0.25000000       0.50000000       0.25000000 </v>
   <v>       0.25000000       0.50000000       0.50000000 </v>
   <v>       0.25000000       0.50000000       0.75000000 </v>
   <v>       0.25000000       0.75000000       0.00000000 </v>
   <v>       0.25000000       0.75000000       0.25000000 </v>
   <v>       0.25000000       0.75000000       0.50000000 </v>
   <v>       0.25000000       0.75000000       0.75000000 </v>
   <v>       0.50000000       0.00000000       0.00000000 </v>
   <v>       0.50000000       0.00000000       0.25000000 </v>
   <v>       0.50000000       0.00000000       0.50000000 </v>
   <v>       0.50000000       0.00000000       0.75000000 </v>
   <v>       0.50000000       0.25000000       0.00000000 </v>
   <v>       0.50000000       0.25000000       0.25000000 </v>
   <v>       0.50000000       0.25000000       0.50000000 </v>
   <v>       0.50000000       0.25000000       0.75000000 </v>
   <v>       0.50000000       0.50000000       0.00000000 </v>
   <v>       0.50000000       0.50000000       0.25000000 </v>
   <v>       0.50000000       0.50000000       0.50000000 </v>
   <v>       0.50000000       0.50000000       0.75000000 </v>
   <v>       0.50000000       0.75000000       0.00000000 </v>
   <v>       0.50000000       0.75000000       0.25000000 </v>
   <v>       0.50000000       0.75000000       0.50000000 </v>
   <v>       0.50000000       0.75000000       0.75000000 </v>
   <v>       0.75000000       0.00000000       0.00000000 </v>
   <v>       0.75000000       0.00000000       0.25000000 </v>
   <v>       0.75000000       0.00000000       0.50000000 </v>
   <v>       0.75000000       0.00000000       0.75000000 </v>
   <v>       0.75000000       0.25000000       0.00000000 </v>
   <v>       0.75000000       0.25000000       0.25000000 </v>
   <v>       0.75000000       0.25000000       0.50000000 </v>
   <v>       0.75000000       0.25000000       0.75000000 </v>
   <v>       0.75000000       0.50000000       0.00000000 </v>
   <v>       0.75000000       0.50000000       0.25000000 </v>
   <v>       0.75000000       0.50000000       0.50000000 </v>
   <v>       0.75000000       0.50000000       0.75000000 </v>
   <v>       0.75000000       0.75000000       0.00000000 </v>
   <v>       0.75000000       0.75000000       0.25000000 </v>
   <v>       0.75000000       0.75000000       0.50000000 </v>
   <v>       0.75000000       0.75000000       0.75000000 </v>
  </varray>
 </structure>
</modeling>
