       N       E                     dE             d eps       ncg     rms          rms(c)
DAV:   1     0.143566170580E+05    0.14357E+05   -0.52254E+05 29656   0.198E+03
DAV:   2     0.944166552821E+03   -0.13412E+05   -0.12958E+05 25920   0.659E+02
DAV:   3    -0.353971844369E+03   -0.12981E+04   -0.10797E+04 26608   0.213E+02
DAV:   4    -0.419125443564E+03   -0.65154E+02   -0.63797E+02 27736   0.502E+01
DAV:   5    -0.420071195000E+03   -0.94575E+00   -0.94534E+00 27712   0.558E+00    0.664E+01
DAV:   6    -0.376442228999E+03    0.43629E+02   -0.48486E+02 27336   0.656E+01    0.367E+01
DAV:   7    -0.359383229055E+03    0.17059E+02   -0.76271E+01 27200   0.262E+01    0.603E+00
DAV:   8    -0.359261338218E+03    0.12189E+00   -0.72024E-01 28136   0.187E+00    0.268E+00
DAV:   9    -0.359127394068E+03    0.13394E+00   -0.14513E-01 28024   0.705E-01    0.693E-01
DAV:  10    -0.359131251147E+03   -0.38571E-02   -0.10992E-02 29064   0.211E-01    0.333E-01
DAV:  11    -0.359133664532E+03   -0.24134E-02   -0.31110E-03 28464   0.128E-01    0.837E-02
DAV:  12    -0.359133689798E+03   -0.25266E-04   -0.36106E-04 27208   0.440E-02    0.244E-02
DAV:  13    -0.359133692089E+03   -0.22910E-05   -0.18477E-05 24088   0.931E-03    0.199E-02
DAV:  14    -0.359133664820E+03    0.27270E-04   -0.14456E-05 24400   0.107E-02    0.264E-03
DAV:  15    -0.359133662610E+03    0.22100E-05   -0.45619E-07 13872   0.158E-03    0.106E-03
DAV:  16    -0.359133663064E+03   -0.45478E-06   -0.74641E-08 13656   0.818E-04
   1 F= -.35913366E+03 E0= -.35910845E+03  d E =-.756471E-01  mag=    39.2961
 Found     1 degrees of freedom:
       N       E                     dE             d eps       ncg     rms          rms(c)
DAV:   1    -0.359056659464E+03    0.77003E-01   -0.23816E+00 62256   0.150E+01    0.449E-01
DAV:   2    -0.359132500019E+03   -0.75841E-01   -0.74420E-01 48640   0.162E+00    0.907E-01
DAV:   3    -0.359133578336E+03   -0.10783E-02   -0.25395E-02 55528   0.874E-01    0.751E-01
DAV:   4    -0.359132822042E+03    0.75629E-03   -0.36824E-03 57144   0.464E-01    0.517E-01
DAV:   5    -0.359132044354E+03    0.77769E-03   -0.85915E-04 51160   0.270E-01    0.150E-01
DAV:   6    -0.359132027018E+03    0.17335E-04   -0.17849E-04 57344   0.711E-02    0.135E-01
DAV:   7    -0.359131965801E+03    0.61218E-04   -0.53652E-05 51808   0.581E-02    0.112E-01
DAV:   8    -0.359131953147E+03    0.12654E-04   -0.83734E-05 54184   0.849E-02    0.134E-01
DAV:   9    -0.359131905271E+03    0.47876E-04   -0.12714E-04 61448   0.104E-01    0.105E-01
DAV:  10    -0.359131864450E+03    0.40820E-04   -0.72280E-05 60152   0.683E-02    0.174E-02
DAV:  11    -0.359131868749E+03   -0.42986E-05   -0.17793E-05 60656   0.238E-02    0.362E-02
DAV:  12    -0.359131865766E+03    0.29831E-05   -0.62180E-06 47832   0.188E-02    0.845E-03
DAV:  13    -0.359131865907E+03   -0.14075E-06   -0.93600E-07 24448   0.770E-03
   2 F= -.35913187E+03 E0= -.35910666E+03  d E =-.756315E-01  mag=    39.2960
       N       E                     dE             d eps       ncg     rms          rms(c)
DAV:   1    -0.358867334592E+03    0.26453E+00   -0.77085E+00 62176   0.262E+01    0.851E-01
DAV:   2    -0.359139674413E+03   -0.27234E+00   -0.26005E+00 48920   0.295E+00    0.231E+00
DAV:   3    -0.359134875064E+03    0.47993E-02   -0.11647E-01 55304   0.168E+00    0.103E+00
DAV:   4    -0.359137100084E+03   -0.22250E-02   -0.15103E-02 59256   0.919E-01    0.126E+00
DAV:   5    -0.359132507712E+03    0.45924E-02   -0.50734E-03 50400   0.656E-01    0.313E-01
DAV:   6    -0.359132395336E+03    0.11238E-03   -0.79174E-04 55800   0.160E-01    0.240E-01
DAV:   7    -0.359132222208E+03    0.17313E-03   -0.23962E-04 52064   0.117E-01    0.219E-01
DAV:   8    -0.359132105391E+03    0.11682E-03   -0.29249E-04 53536   0.152E-01    0.217E-01
DAV:   9    -0.359132139000E+03   -0.33608E-04   -0.47752E-04 56024   0.204E-01    0.279E-01
DAV:  10    -0.359131909931E+03    0.22907E-03   -0.37132E-04 57224   0.171E-01    0.136E-01
DAV:  11    -0.359131863219E+03    0.46713E-04   -0.12058E-04 59720   0.765E-02    0.208E-02
DAV:  12    -0.359131867246E+03   -0.40276E-05   -0.25331E-05 49696   0.209E-02    0.249E-02
DAV:  13    -0.359131866088E+03    0.11584E-05   -0.50383E-06 44896   0.178E-02    0.131E-02
DAV:  14    -0.359131866962E+03   -0.87431E-06   -0.18013E-06 28776   0.135E-02
   3 F= -.35913187E+03 E0= -.35910666E+03  d E =-.756314E-01  mag=    39.2961
