 vasp.5.4.1 05Feb16 (build Oct 12 2016 17:31:35) complex                        
  
 executed on           IFC91_ompi date 2020.09.07  22:42:39
 running on    4 total cores
 distrk:  each k-point on    4 cores,    1 groups
 distr:  one band on NCORES_PER_BAND=   1 cores,    4 groups


--------------------------------------------------------------------------------------------------------


 INCAR:
 POTCAR:   PAW_PBE Ni_pv 06Sep2000                
 POTCAR:   PAW_PBE Ni_pv 06Sep2000                
  local pseudopotential read in
  partial core-charges read in
  atomic valenz-charges read in
  non local Contribution for L=           1  read in
    real space projection operators read in
  non local Contribution for L=           1  read in
    real space projection operators read in
  non local Contribution for L=           2  read in
    real space projection operators read in
  non local Contribution for L=           2  read in
    real space projection operators read in
  non local Contribution for L=           0  read in
    real space projection operators read in
  non local Contribution for L=           0  read in
    real space projection operators read in
    PAW grid and wavefunctions read in
 
   number of l-projection  operators is LMAX  =           6
   number of lm-projection operators is LMMAX =          18
 
 Optimization of the real space projectors (new method)

 maximal supplied QI-value         = 18.90
 optimisation between [QCUT,QGAM] = [  9.83, 19.65] = [ 27.04,108.16] Ry 
 Optimized for a Real-space Cutoff    1.44 Angstroem

   l    n(q)    QCUT    max X(q) W(low)/X(q) W(high)/X(q)  e(spline) 
   1      8     9.827     3.231    0.38E-04    0.39E-04    0.57E-07
   1      8     9.827     4.241    0.57E-04    0.19E-03    0.30E-06
   2      7     9.827     3.566    0.29E-04    0.66E-04    0.48E-07
   2      7     9.827    20.429    0.17E-03    0.37E-03    0.30E-06
   0      8     9.827    19.799    0.18E-04    0.76E-05    0.78E-08
   0      8     9.827    52.283    0.39E-04    0.68E-04    0.44E-07
 PAW_PBE Ni_pv 06Sep2000                :
 energy of atom  1       EATOM=-3500.3496
 kinetic energy error for atom=    0.1419 (will be added to EATOM!!)
 
 
 POSCAR: Supercell by Yi Wang                    
  positions in direct lattice
  No initial velocities read in
 exchange correlation table for  LEXCH =        8
   RHO(1)=    0.500       N(1)  =     2000
   RHO(2)=  100.500       N(2)  =     4000
 


--------------------------------------------------------------------------------------------------------


 ion  position               nearest neighbor table
   1  0.000  0.000  0.000-   2 2.38   4 2.38   5 2.38   8 2.38  13 2.38  14 2.38  17 2.38  20 2.38
                            29 2.38  49 2.38  50 2.38  53 2.38
   2  0.000  0.000  0.250-   1 2.38   3 2.38   5 2.38   6 2.38  14 2.38  15 2.38  17 2.38  18 2.38
                            30 2.38  50 2.38  51 2.38  54 2.38
   3  0.000  0.000  0.500-   2 2.38   4 2.38   6 2.38   7 2.38  15 2.38  16 2.38  18 2.38  19 2.38
                            31 2.38  51 2.38  52 2.38  55 2.38
   4  0.000  0.000  0.750-   1 2.38   3 2.38   7 2.38   8 2.38  13 2.38  16 2.38  19 2.38  20 2.38
                            32 2.38  49 2.38  52 2.38  56 2.38
   5  0.000  0.250  0.000-   1 2.38   2 2.38   6 2.38   8 2.38   9 2.38  12 2.38  17 2.38  21 2.38
                            24 2.38  53 2.38  54 2.38  57 2.38
   6  0.000  0.250  0.250-   2 2.38   3 2.38   5 2.38   7 2.38   9 2.38  10 2.38  18 2.38  21 2.38
                            22 2.38  54 2.38  55 2.38  58 2.38
   7  0.000  0.250  0.500-   3 2.38   4 2.38   6 2.38   8 2.38  10 2.38  11 2.38  19 2.38  22 2.38
                            23 2.38  55 2.38  56 2.38  59 2.38
   8  0.000  0.250  0.750-   1 2.38   4 2.38   5 2.38   7 2.38  11 2.38  12 2.38  20 2.38  23 2.38
                            24 2.38  53 2.38  56 2.38  60 2.38
   9  0.000  0.500  0.000-   5 2.38   6 2.38  10 2.38  12 2.38  13 2.38  16 2.38  21 2.38  25 2.38
                            28 2.38  57 2.38  58 2.38  61 2.38
  10  0.000  0.500  0.250-   6 2.38   7 2.38   9 2.38  11 2.38  13 2.38  14 2.38  22 2.38  25 2.38
                            26 2.38  58 2.38  59 2.38  62 2.38
  11  0.000  0.500  0.500-   7 2.38   8 2.38  10 2.38  12 2.38  14 2.38  15 2.38  23 2.38  26 2.38
                            27 2.38  59 2.38  60 2.38  63 2.38
  12  0.000  0.500  0.750-   5 2.38   8 2.38   9 2.38  11 2.38  15 2.38  16 2.38  24 2.38  27 2.38
                            28 2.38  57 2.38  60 2.38  64 2.38
  13  0.000  0.750  0.000-   1 2.38   4 2.38   9 2.38  10 2.38  14 2.38  16 2.38  25 2.38  29 2.38
                            32 2.38  49 2.38  61 2.38  62 2.38
  14  0.000  0.750  0.250-   1 2.38   2 2.38  10 2.38  11 2.38  13 2.38  15 2.38  26 2.38  29 2.38
                            30 2.38  50 2.38  62 2.38  63 2.38
  15  0.000  0.750  0.500-   2 2.38   3 2.38  11 2.38  12 2.38  14 2.38  16 2.38  27 2.38  30 2.38
                            31 2.38  51 2.38  63 2.38  64 2.38
  16  0.000  0.750  0.750-   3 2.38   4 2.38   9 2.38  12 2.38  13 2.38  15 2.38  28 2.38  31 2.38
                            32 2.38  52 2.38  61 2.38  64 2.38
  17  0.250  0.000  0.000-   1 2.38   2 2.38   5 2.38  18 2.38  20 2.38  21 2.38  24 2.38  29 2.38
                            30 2.38  33 2.38  36 2.38  45 2.38
  18  0.250  0.000  0.250-   2 2.38   3 2.38   6 2.38  17 2.38  19 2.38  21 2.38  22 2.38  30 2.38
                            31 2.38  33 2.38  34 2.38  46 2.38
  19  0.250  0.000  0.500-   3 2.38   4 2.38   7 2.38  18 2.38  20 2.38  22 2.38  23 2.38  31 2.38
                            32 2.38  34 2.38  35 2.38  47 2.38
  20  0.250  0.000  0.750-   1 2.38   4 2.38   8 2.38  17 2.38  19 2.38  23 2.38  24 2.38  29 2.38
                            32 2.38  35 2.38  36 2.38  48 2.38
  21  0.250  0.250  0.000-   5 2.38   6 2.38   9 2.38  17 2.38  18 2.38  22 2.38  24 2.38  25 2.38
                            28 2.38  33 2.38  37 2.38  40 2.38
  22  0.250  0.250  0.250-   6 2.38   7 2.38  10 2.38  18 2.38  19 2.38  21 2.38  23 2.38  25 2.38
                            26 2.38  34 2.38  37 2.38  38 2.38
  23  0.250  0.250  0.500-   7 2.38   8 2.38  11 2.38  19 2.38  20 2.38  22 2.38  24 2.38  26 2.38
                            27 2.38  35 2.38  38 2.38  39 2.38
  24  0.250  0.250  0.750-   5 2.38   8 2.38  12 2.38  17 2.38  20 2.38  21 2.38  23 2.38  27 2.38
                            28 2.38  36 2.38  39 2.38  40 2.38
  25  0.250  0.500  0.000-   9 2.38  10 2.38  13 2.38  21 2.38  22 2.38  26 2.38  28 2.38  29 2.38
                            32 2.38  37 2.38  41 2.38  44 2.38
  26  0.250  0.500  0.250-  10 2.38  11 2.38  14 2.38  22 2.38  23 2.38  25 2.38  27 2.38  29 2.38
                            30 2.38  38 2.38  41 2.38  42 2.38
  27  0.250  0.500  0.500-  11 2.38  12 2.38  15 2.38  23 2.38  24 2.38  26 2.38  28 2.38  30 2.38
                            31 2.38  39 2.38  42 2.38  43 2.38
  28  0.250  0.500  0.750-   9 2.38  12 2.38  16 2.38  21 2.38  24 2.38  25 2.38  27 2.38  31 2.38
                            32 2.38  40 2.38  43 2.38  44 2.38
  29  0.250  0.750  0.000-   1 2.38  13 2.38  14 2.38  17 2.38  20 2.38  25 2.38  26 2.38  30 2.38
                            32 2.38  41 2.38  45 2.38  48 2.38
  30  0.250  0.750  0.250-   2 2.38  14 2.38  15 2.38  17 2.38  18 2.38  26 2.38  27 2.38  29 2.38
                            31 2.38  42 2.38  45 2.38  46 2.38
  31  0.250  0.750  0.500-   3 2.38  15 2.38  16 2.38  18 2.38  19 2.38  27 2.38  28 2.38  30 2.38
                            32 2.38  43 2.38  46 2.38  47 2.38
  32  0.250  0.750  0.750-   4 2.38  13 2.38  16 2.38  19 2.38  20 2.38  25 2.38  28 2.38  29 2.38
                            31 2.38  44 2.38  47 2.38  48 2.38
  33  0.500  0.000  0.000-  17 2.38  18 2.38  21 2.38  34 2.38  36 2.38  37 2.38  40 2.38  45 2.38
                            46 2.38  49 2.38  52 2.38  61 2.38
  34  0.500  0.000  0.250-  18 2.38  19 2.38  22 2.38  33 2.38  35 2.38  37 2.38  38 2.38  46 2.38
                            47 2.38  49 2.38  50 2.38  62 2.38
  35  0.500  0.000  0.500-  19 2.38  20 2.38  23 2.38  34 2.38  36 2.38  38 2.38  39 2.38  47 2.38
                            48 2.38  50 2.38  51 2.38  63 2.38
  36  0.500  0.000  0.750-  17 2.38  20 2.38  24 2.38  33 2.38  35 2.38  39 2.38  40 2.38  45 2.38
                            48 2.38  51 2.38  52 2.38  64 2.38
  37  0.500  0.250  0.000-  21 2.38  22 2.38  25 2.38  33 2.38  34 2.38  38 2.38  40 2.38  41 2.38
                            44 2.38  49 2.38  53 2.38  56 2.38
  38  0.500  0.250  0.250-  22 2.38  23 2.38  26 2.38  34 2.38  35 2.38  37 2.38  39 2.38  41 2.38
                            42 2.38  50 2.38  53 2.38  54 2.38
  39  0.500  0.250  0.500-  23 2.38  24 2.38  27 2.38  35 2.38  36 2.38  38 2.38  40 2.38  42 2.38
                            43 2.38  51 2.38  54 2.38  55 2.38
  40  0.500  0.250  0.750-  21 2.38  24 2.38  28 2.38  33 2.38  36 2.38  37 2.38  39 2.38  43 2.38
                            44 2.38  52 2.38  55 2.38  56 2.38
  41  0.500  0.500  0.000-  25 2.38  26 2.38  29 2.38  37 2.38  38 2.38  42 2.38  44 2.38  45 2.38
                            48 2.38  53 2.38  57 2.38  60 2.38
  42  0.500  0.500  0.250-  26 2.38  27 2.38  30 2.38  38 2.38  39 2.38  41 2.38  43 2.38  45 2.38
                            46 2.38  54 2.38  57 2.38  58 2.38
  43  0.500  0.500  0.500-  27 2.38  28 2.38  31 2.38  39 2.38  40 2.38  42 2.38  44 2.38  46 2.38
                            47 2.38  55 2.38  58 2.38  59 2.38
  44  0.500  0.500  0.750-  25 2.38  28 2.38  32 2.38  37 2.38  40 2.38  41 2.38  43 2.38  47 2.38
                            48 2.38  56 2.38  59 2.38  60 2.38
  45  0.500  0.750  0.000-  17 2.38  29 2.38  30 2.38  33 2.38  36 2.38  41 2.38  42 2.38  46 2.38
                            48 2.38  57 2.38  61 2.38  64 2.38
  46  0.500  0.750  0.250-  18 2.38  30 2.38  31 2.38  33 2.38  34 2.38  42 2.38  43 2.38  45 2.38
                            47 2.38  58 2.38  61 2.38  62 2.38
  47  0.500  0.750  0.500-  19 2.38  31 2.38  32 2.38  34 2.38  35 2.38  43 2.38  44 2.38  46 2.38
                            48 2.38  59 2.38  62 2.38  63 2.38
  48  0.500  0.750  0.750-  20 2.38  29 2.38  32 2.38  35 2.38  36 2.38  41 2.38  44 2.38  45 2.38
                            47 2.38  60 2.38  63 2.38  64 2.38
  49  0.750  0.000  0.000-   1 2.38   4 2.38  13 2.38  33 2.38  34 2.38  37 2.38  50 2.38  52 2.38
                            53 2.38  56 2.38  61 2.38  62 2.38
  50  0.750  0.000  0.250-   1 2.38   2 2.38  14 2.38  34 2.38  35 2.38  38 2.38  49 2.38  51 2.38
                            53 2.38  54 2.38  62 2.38  63 2.38
  51  0.750  0.000  0.500-   2 2.38   3 2.38  15 2.38  35 2.38  36 2.38  39 2.38  50 2.38  52 2.38
                            54 2.38  55 2.38  63 2.38  64 2.38
  52  0.750  0.000  0.750-   3 2.38   4 2.38  16 2.38  33 2.38  36 2.38  40 2.38  49 2.38  51 2.38
                            55 2.38  56 2.38  61 2.38  64 2.38
  53  0.750  0.250  0.000-   1 2.38   5 2.38   8 2.38  37 2.38  38 2.38  41 2.38  49 2.38  50 2.38
                            54 2.38  56 2.38  57 2.38  60 2.38
  54  0.750  0.250  0.250-   2 2.38   5 2.38   6 2.38  38 2.38  39 2.38  42 2.38  50 2.38  51 2.38
                            53 2.38  55 2.38  57 2.38  58 2.38
  55  0.750  0.250  0.500-   3 2.38   6 2.38   7 2.38  39 2.38  40 2.38  43 2.38  51 2.38  52 2.38
                            54 2.38  56 2.38  58 2.38  59 2.38
  56  0.750  0.250  0.750-   4 2.38   7 2.38   8 2.38  37 2.38  40 2.38  44 2.38  49 2.38  52 2.38
                            53 2.38  55 2.38  59 2.38  60 2.38
  57  0.750  0.500  0.000-   5 2.38   9 2.38  12 2.38  41 2.38  42 2.38  45 2.38  53 2.38  54 2.38
                            58 2.38  60 2.38  61 2.38  64 2.38
  58  0.750  0.500  0.250-   6 2.38   9 2.38  10 2.38  42 2.38  43 2.38  46 2.38  54 2.38  55 2.38
                            57 2.38  59 2.38  61 2.38  62 2.38
  59  0.750  0.500  0.500-   7 2.38  10 2.38  11 2.38  43 2.38  44 2.38  47 2.38  55 2.38  56 2.38
                            58 2.38  60 2.38  62 2.38  63 2.38
  60  0.750  0.500  0.750-   8 2.38  11 2.38  12 2.38  41 2.38  44 2.38  48 2.38  53 2.38  56 2.38
                            57 2.38  59 2.38  63 2.38  64 2.38
  61  0.750  0.750  0.000-   9 2.38  13 2.38  16 2.38  33 2.38  45 2.38  46 2.38  49 2.38  52 2.38
                            57 2.38  58 2.38  62 2.38  64 2.38
  62  0.750  0.750  0.250-  10 2.38  13 2.38  14 2.38  34 2.38  46 2.38  47 2.38  49 2.38  50 2.38
                            58 2.38  59 2.38  61 2.38  63 2.38
  63  0.750  0.750  0.500-  11 2.38  14 2.38  15 2.38  35 2.38  47 2.38  48 2.38  50 2.38  51 2.38
                            59 2.38  60 2.38  62 2.38  64 2.38
  64  0.750  0.750  0.750-  12 2.38  15 2.38  16 2.38  36 2.38  45 2.38  48 2.38  51 2.38  52 2.38
                            57 2.38  60 2.38  61 2.38  63 2.38
 
  LATTYP: Found a face centered cubic cell.
 ALAT       =    13.4655000000
  
  Lattice vectors:
  
 A1 = (   0.0000000000,   6.7327500000,   6.7327500000)
 A2 = (   6.7327500000,   0.0000000000,   6.7327500000)
 A3 = (   6.7327500000,   6.7327500000,   0.0000000000)


Analysis of symmetry for initial positions (statically):
=====================================================================
 Subroutine PRICEL returns following result:
 
  LATTYP: Found a face centered cubic cell.
 ALAT       =     3.3663750000
  
  Lattice vectors:
  
 A1 = (   0.0000000000,   1.6831875000,   1.6831875000)
 A2 = (   1.6831875000,   0.0000000000,   1.6831875000)
 A3 = (   1.6831875000,   1.6831875000,   0.0000000000)
 
  64 primitive cells build up your supercell.
 

 Routine SETGRP: Setting up the symmetry group for a 
 face centered cubic supercell.


 Subroutine GETGRP returns: Found 48 space group operations
 (whereof 48 operations were pure point group operations)
 out of a pool of 48 trial point group operations.


The static configuration has the point symmetry O_h .


Analysis of symmetry for dynamics (positions and initial velocities):
=====================================================================
 Subroutine PRICEL returns following result:
 
  LATTYP: Found a face centered cubic cell.
 ALAT       =     3.3663750000
  
  Lattice vectors:
  
 A1 = (   0.0000000000,   1.6831875000,   1.6831875000)
 A2 = (   1.6831875000,   0.0000000000,   1.6831875000)
 A3 = (   1.6831875000,   1.6831875000,   0.0000000000)
 
  64 primitive cells build up your supercell.
 

 Routine SETGRP: Setting up the symmetry group for a 
 face centered cubic supercell.


 Subroutine GETGRP returns: Found 48 space group operations
 (whereof 48 operations were pure point group operations)
 out of a pool of 48 trial point group operations.


The dynamic configuration has the point symmetry O_h .


Analysis of structural, dynamic, and magnetic symmetry:
=====================================================================
 Subroutine PRICEL returns following result:
 
  LATTYP: Found a face centered cubic cell.
 ALAT       =     3.3663750000
  
  Lattice vectors:
  
 A1 = (   0.0000000000,   1.6831875000,   1.6831875000)
 A2 = (   1.6831875000,   0.0000000000,   1.6831875000)
 A3 = (   1.6831875000,   1.6831875000,   0.0000000000)
 
  64 primitive cells build up your supercell.
 

 Routine SETGRP: Setting up the symmetry group for a 
 face centered cubic supercell.


 Subroutine GETGRP returns: Found 48 space group operations
 (whereof 48 operations were pure point group operations)
 out of a pool of 48 trial point group operations.


The magnetic configuration has the point symmetry O_h .


 Subroutine INISYM returns: Found 48 space group operations
 (whereof 48 operations are pure point group operations),
 and found    64 'primitive' translations

 
 
 KPOINTS: Zr 15x15x15                             

Automatic generation of k-mesh.
Space group operators:
 irot       det(A)        alpha          n_x          n_y          n_z        tau_x        tau_y        tau_z
    1     1.000000     0.000000     1.000000     0.000000     0.000000     0.000000     0.000000     0.000000
    2    -1.000000     0.000000     1.000000     0.000000     0.000000     0.000000     0.000000     0.000000
    3     1.000000   120.000000    -0.577350    -0.577350    -0.577350     0.000000     0.000000     0.000000
    4    -1.000000   120.000000    -0.577350    -0.577350    -0.577350     0.000000     0.000000     0.000000
    5     1.000000   120.000000     0.577350     0.577350     0.577350     0.000000     0.000000     0.000000
    6    -1.000000   120.000000     0.577350     0.577350     0.577350     0.000000     0.000000     0.000000
    7     1.000000    90.000000     0.000000     0.000000    -1.000000     0.000000     0.000000     0.000000
    8    -1.000000    90.000000     0.000000     0.000000    -1.000000     0.000000     0.000000     0.000000
    9     1.000000   180.000000     0.000000     0.707107     0.707107     0.000000     0.000000     0.000000
   10    -1.000000   180.000000     0.000000     0.707107     0.707107     0.000000     0.000000     0.000000
   11     1.000000    90.000000     0.000000     1.000000     0.000000     0.000000     0.000000     0.000000
   12    -1.000000    90.000000     0.000000     1.000000     0.000000     0.000000     0.000000     0.000000
   13     1.000000   180.000000     0.000000     0.000000     1.000000     0.000000     0.000000     0.000000
   14    -1.000000   180.000000     0.000000     0.000000     1.000000     0.000000     0.000000     0.000000
   15     1.000000   120.000000    -0.577350     0.577350     0.577350     0.000000     0.000000     0.000000
   16    -1.000000   120.000000    -0.577350     0.577350     0.577350     0.000000     0.000000     0.000000
   17     1.000000   120.000000    -0.577350     0.577350    -0.577350     0.000000     0.000000     0.000000
   18    -1.000000   120.000000    -0.577350     0.577350    -0.577350     0.000000     0.000000     0.000000
   19     1.000000    90.000000     0.000000     0.000000     1.000000     0.000000     0.000000     0.000000
   20    -1.000000    90.000000     0.000000     0.000000     1.000000     0.000000     0.000000     0.000000
   21     1.000000    90.000000    -1.000000     0.000000     0.000000     0.000000     0.000000     0.000000
   22    -1.000000    90.000000    -1.000000     0.000000     0.000000     0.000000     0.000000     0.000000
   23     1.000000   180.000000     0.707107     0.000000     0.707107     0.000000     0.000000     0.000000
   24    -1.000000   180.000000     0.707107     0.000000     0.707107     0.000000     0.000000     0.000000
   25     1.000000   120.000000     0.577350    -0.577350     0.577350     0.000000     0.000000     0.000000
   26    -1.000000   120.000000     0.577350    -0.577350     0.577350     0.000000     0.000000     0.000000
   27     1.000000   120.000000    -0.577350    -0.577350     0.577350     0.000000     0.000000     0.000000
   28    -1.000000   120.000000    -0.577350    -0.577350     0.577350     0.000000     0.000000     0.000000
   29     1.000000   180.000000     1.000000     0.000000     0.000000     0.000000     0.000000     0.000000
   30    -1.000000   180.000000     1.000000     0.000000     0.000000     0.000000     0.000000     0.000000
   31     1.000000    90.000000     0.000000    -1.000000     0.000000     0.000000     0.000000     0.000000
   32    -1.000000    90.000000     0.000000    -1.000000     0.000000     0.000000     0.000000     0.000000
   33     1.000000   180.000000     0.707107     0.707107     0.000000     0.000000     0.000000     0.000000
   34    -1.000000   180.000000     0.707107     0.707107     0.000000     0.000000     0.000000     0.000000
   35     1.000000    90.000000     1.000000     0.000000     0.000000     0.000000     0.000000     0.000000
   36    -1.000000    90.000000     1.000000     0.000000     0.000000     0.000000     0.000000     0.000000
   37     1.000000   120.000000     0.577350    -0.577350    -0.577350     0.000000     0.000000     0.000000
   38    -1.000000   120.000000     0.577350    -0.577350    -0.577350     0.000000     0.000000     0.000000
   39     1.000000   180.000000     0.000000     1.000000     0.000000     0.000000     0.000000     0.000000
   40    -1.000000   180.000000     0.000000     1.000000     0.000000     0.000000     0.000000     0.000000
   41     1.000000   120.000000     0.577350     0.577350    -0.577350     0.000000     0.000000     0.000000
   42    -1.000000   120.000000     0.577350     0.577350    -0.577350     0.000000     0.000000     0.000000
   43     1.000000   180.000000     0.000000    -0.707107     0.707107     0.000000     0.000000     0.000000
   44    -1.000000   180.000000     0.000000    -0.707107     0.707107     0.000000     0.000000     0.000000
   45     1.000000   180.000000     0.707107    -0.707107     0.000000     0.000000     0.000000     0.000000
   46    -1.000000   180.000000     0.707107    -0.707107     0.000000     0.000000     0.000000     0.000000
   47     1.000000   180.000000     0.707107     0.000000    -0.707107     0.000000     0.000000     0.000000
   48    -1.000000   180.000000     0.707107     0.000000    -0.707107     0.000000     0.000000     0.000000
 
 Subroutine IBZKPT returns following result:
 ===========================================
 
 Found     10 irreducible k-points:
 
 Following reciprocal coordinates:
            Coordinates               Weight
  0.000000  0.000000  0.000000      1.000000
  0.200000  0.000000  0.000000      8.000000
  0.400000  0.000000  0.000000      8.000000
  0.200000  0.200000  0.000000      6.000000
  0.400000  0.200000  0.000000     24.000000
 -0.400000  0.200000  0.000000     24.000000
 -0.200000  0.200000  0.000000     12.000000
  0.400000  0.400000  0.000000      6.000000
 -0.400000  0.400000  0.000000     12.000000
 -0.400000  0.400000  0.200000     24.000000
 
 Following cartesian coordinates:
            Coordinates               Weight
  0.000000  0.000000  0.000000      1.000000
 -0.014853  0.014853  0.014853      8.000000
 -0.029706  0.029706  0.029706      8.000000
  0.000000  0.000000  0.029706      6.000000
 -0.014853  0.014853  0.044558     24.000000
  0.044558 -0.044558 -0.014853     24.000000
  0.029706 -0.029706  0.000000     12.000000
  0.000000  0.000000  0.059411      6.000000
  0.059411 -0.059411  0.000000     12.000000
  0.074264 -0.044558 -0.014853     24.000000
 
 
 Subroutine IBZKPT_HF returns following result:
 ==============================================
 
 Found    125 k-points in 1st BZ
 the following    125 k-points will be used (e.g. in the exchange kernel)
 Following reciprocal coordinates:   # in IRBZ
  0.000000  0.000000  0.000000    0.00800000   1 t-inv F
  0.200000  0.000000  0.000000    0.00800000   2 t-inv F
  0.400000  0.000000  0.000000    0.00800000   3 t-inv F
  0.200000  0.200000  0.000000    0.00800000   4 t-inv F
  0.400000  0.200000  0.000000    0.00800000   5 t-inv F
 -0.400000  0.200000  0.000000    0.00800000   6 t-inv F
 -0.200000  0.200000  0.000000    0.00800000   7 t-inv F
  0.400000  0.400000  0.000000    0.00800000   8 t-inv F
 -0.400000  0.400000  0.000000    0.00800000   9 t-inv F
 -0.400000  0.400000  0.200000    0.00800000  10 t-inv F
 -0.200000  0.000000  0.000000    0.00800000   2 t-inv F
  0.000000  0.200000  0.000000    0.00800000   2 t-inv F
  0.000000 -0.200000  0.000000    0.00800000   2 t-inv F
  0.000000  0.000000  0.200000    0.00800000   2 t-inv F
  0.000000  0.000000 -0.200000    0.00800000   2 t-inv F
  0.200000  0.200000  0.200000    0.00800000   2 t-inv F
 -0.200000 -0.200000 -0.200000    0.00800000   2 t-inv F
 -0.400000  0.000000  0.000000    0.00800000   3 t-inv F
  0.000000  0.400000  0.000000    0.00800000   3 t-inv F
  0.000000 -0.400000  0.000000    0.00800000   3 t-inv F
  0.000000  0.000000  0.400000    0.00800000   3 t-inv F
  0.000000  0.000000 -0.400000    0.00800000   3 t-inv F
  0.400000  0.400000  0.400000    0.00800000   3 t-inv F
 -0.400000 -0.400000 -0.400000    0.00800000   3 t-inv F
 -0.200000 -0.200000  0.000000    0.00800000   4 t-inv F
  0.000000  0.200000  0.200000    0.00800000   4 t-inv F
  0.000000 -0.200000 -0.200000    0.00800000   4 t-inv F
  0.200000  0.000000  0.200000    0.00800000   4 t-inv F
 -0.200000  0.000000 -0.200000    0.00800000   4 t-inv F
 -0.400000 -0.200000  0.000000    0.00800000   5 t-inv F
  0.000000  0.400000  0.200000    0.00800000   5 t-inv F
  0.000000 -0.400000 -0.200000    0.00800000   5 t-inv F
  0.200000  0.000000  0.400000    0.00800000   5 t-inv F
 -0.200000  0.000000 -0.400000    0.00800000   5 t-inv F
  0.200000  0.200000 -0.200000    0.00800000   5 t-inv F
 -0.200000 -0.200000  0.200000    0.00800000   5 t-inv F
  0.400000  0.200000  0.400000    0.00800000   5 t-inv F
 -0.400000 -0.200000 -0.400000    0.00800000   5 t-inv F
  0.200000  0.400000  0.000000    0.00800000   5 t-inv F
 -0.200000 -0.400000  0.000000    0.00800000   5 t-inv F
  0.200000 -0.200000 -0.200000    0.00800000   5 t-inv F
 -0.200000  0.200000  0.200000    0.00800000   5 t-inv F
  0.400000  0.400000  0.200000    0.00800000   5 t-inv F
 -0.400000 -0.400000 -0.200000    0.00800000   5 t-inv F
  0.000000  0.200000  0.400000    0.00800000   5 t-inv F
  0.000000 -0.200000 -0.400000    0.00800000   5 t-inv F
 -0.200000  0.200000 -0.200000    0.00800000   5 t-inv F
  0.200000 -0.200000  0.200000    0.00800000   5 t-inv F
  0.200000  0.400000  0.400000    0.00800000   5 t-inv F
 -0.200000 -0.400000 -0.400000    0.00800000   5 t-inv F
  0.400000  0.000000  0.200000    0.00800000   5 t-inv F
 -0.400000  0.000000 -0.200000    0.00800000   5 t-inv F
  0.400000 -0.200000  0.000000    0.00800000   6 t-inv F
  0.000000 -0.400000  0.200000    0.00800000   6 t-inv F
  0.000000  0.400000 -0.200000    0.00800000   6 t-inv F
  0.200000  0.000000 -0.400000    0.00800000   6 t-inv F
 -0.200000  0.000000  0.400000    0.00800000   6 t-inv F
  0.200000  0.200000  0.600000    0.00800000   6 t-inv F
 -0.200000 -0.200000 -0.600000    0.00800000   6 t-inv F
 -0.400000 -0.600000 -0.400000    0.00800000   6 t-inv F
  0.400000  0.600000  0.400000    0.00800000   6 t-inv F
  0.200000 -0.400000  0.000000    0.00800000   6 t-inv F
 -0.200000  0.400000  0.000000    0.00800000   6 t-inv F
 -0.600000 -0.200000 -0.200000    0.00800000   6 t-inv F
  0.600000  0.200000  0.200000    0.00800000   6 t-inv F
 -0.400000 -0.400000 -0.600000    0.00800000   6 t-inv F
  0.400000  0.400000  0.600000    0.00800000   6 t-inv F
  0.000000  0.200000 -0.400000    0.00800000   6 t-inv F
  0.000000 -0.200000  0.400000    0.00800000   6 t-inv F
 -0.200000 -0.600000 -0.200000    0.00800000   6 t-inv F
  0.200000  0.600000  0.200000    0.00800000   6 t-inv F
 -0.600000 -0.400000 -0.400000    0.00800000   6 t-inv F
  0.600000  0.400000  0.400000    0.00800000   6 t-inv F
 -0.400000  0.000000  0.200000    0.00800000   6 t-inv F
  0.400000  0.000000 -0.200000    0.00800000   6 t-inv F
  0.200000 -0.200000  0.000000    0.00800000   7 t-inv F
  0.000000 -0.200000  0.200000    0.00800000   7 t-inv F
  0.000000  0.200000 -0.200000    0.00800000   7 t-inv F
  0.200000  0.000000 -0.200000    0.00800000   7 t-inv F
 -0.200000  0.000000  0.200000    0.00800000   7 t-inv F
  0.200000  0.200000  0.400000    0.00800000   7 t-inv F
 -0.200000 -0.200000 -0.400000    0.00800000   7 t-inv F
 -0.200000 -0.400000 -0.200000    0.00800000   7 t-inv F
  0.200000  0.400000  0.200000    0.00800000   7 t-inv F
 -0.400000 -0.200000 -0.200000    0.00800000   7 t-inv F
  0.400000  0.200000  0.200000    0.00800000   7 t-inv F
 -0.400000 -0.400000  0.000000    0.00800000   8 t-inv F
  0.000000  0.400000  0.400000    0.00800000   8 t-inv F
  0.000000 -0.400000 -0.400000    0.00800000   8 t-inv F
  0.400000  0.000000  0.400000    0.00800000   8 t-inv F
 -0.400000  0.000000 -0.400000    0.00800000   8 t-inv F
  0.400000 -0.400000  0.000000    0.00800000   9 t-inv F
  0.000000 -0.400000  0.400000    0.00800000   9 t-inv F
  0.000000  0.400000 -0.400000    0.00800000   9 t-inv F
  0.400000  0.000000 -0.400000    0.00800000   9 t-inv F
 -0.400000  0.000000  0.400000    0.00800000   9 t-inv F
  0.400000  0.400000  0.800000    0.00800000   9 t-inv F
 -0.400000 -0.400000 -0.800000    0.00800000   9 t-inv F
 -0.400000 -0.800000 -0.400000    0.00800000   9 t-inv F
  0.400000  0.800000  0.400000    0.00800000   9 t-inv F
 -0.800000 -0.400000 -0.400000    0.00800000   9 t-inv F
  0.800000  0.400000  0.400000    0.00800000   9 t-inv F
  0.400000 -0.400000 -0.200000    0.00800000  10 t-inv F
  0.200000 -0.400000  0.400000    0.00800000  10 t-inv F
 -0.200000  0.400000 -0.400000    0.00800000  10 t-inv F
  0.400000  0.200000 -0.400000    0.00800000  10 t-inv F
 -0.400000 -0.200000  0.400000    0.00800000  10 t-inv F
  0.400000  0.200000  0.800000    0.00800000  10 t-inv F
 -0.400000 -0.200000 -0.800000    0.00800000  10 t-inv F
 -0.400000 -0.800000 -0.600000    0.00800000  10 t-inv F
  0.400000  0.800000  0.600000    0.00800000  10 t-inv F
  0.200000  0.600000 -0.200000    0.00800000  10 t-inv F
 -0.200000 -0.600000  0.200000    0.00800000  10 t-inv F
  0.200000 -0.600000 -0.200000    0.00800000  10 t-inv F
 -0.200000  0.600000  0.200000    0.00800000  10 t-inv F
 -0.800000 -0.200000 -0.400000    0.00800000  10 t-inv F
  0.800000  0.200000  0.400000    0.00800000  10 t-inv F
 -0.600000 -0.400000 -0.800000    0.00800000  10 t-inv F
  0.600000  0.400000  0.800000    0.00800000  10 t-inv F
 -0.200000  0.200000  0.600000    0.00800000  10 t-inv F
  0.200000 -0.200000 -0.600000    0.00800000  10 t-inv F
 -0.400000 -0.800000 -0.200000    0.00800000  10 t-inv F
  0.400000  0.800000  0.200000    0.00800000  10 t-inv F
 -0.800000 -0.600000 -0.400000    0.00800000  10 t-inv F
  0.800000  0.600000  0.400000    0.00800000  10 t-inv F


--------------------------------------------------------------------------------------------------------




 Dimension of arrays:
   k-points           NKPTS =     10   k-points in BZ     NKDIM =     10   number of bands    NBANDS=    648
   number of dos      NEDOS =    301   number of ions     NIONS =     64
   non local maximal  LDIM  =      6   non local SUM 2l+1 LMDIM =     18
   total plane-waves  NPLWV = 216000
   max r-space proj   IRMAX =   4470   max aug-charges    IRDMAX=   8012
   dimension x,y,z NGX =    60 NGY =   60 NGZ =   60
   dimension x,y,z NGXF=   120 NGYF=  120 NGZF=  120
   support grid    NGXF=   120 NGYF=  120 NGZF=  120
   ions per type =              64
 NGX,Y,Z   is equivalent  to a cutoff of  10.48, 10.48, 10.48 a.u.
 NGXF,Y,Z  is equivalent  to a cutoff of  20.95, 20.95, 20.95 a.u.


 I would recommend the setting:
   dimension x,y,z NGX =    60 NGY =   60 NGZ =   60
 SYSTEM =  phonon of Zr bcc - omiga                
 POSCAR =  Supercell by Yi Wang                    

 Startparameter for this run:
   NWRITE =      0    write-flag & timer
   PREC   = a         normal or accurate (medium, high low for compatibility)
   ISTART =      0    job   : 0-new  1-cont  2-samecut
   ICHARG =      2    charge: 1-file 2-atom 10-const
   ISPIN  =      2    spin polarized calculation?
   LNONCOLLINEAR =      F non collinear calculations
   LSORBIT =      F    spin-orbit coupling
   INIWAV =      1    electr: 0-lowe 1-rand  2-diag
   LASPH  =      F    aspherical Exc in radial PAW
   METAGGA=      F    non-selfconsistent MetaGGA calc.

 Electronic Relaxation 1
   ENCUT  =  367.9 eV  27.04 Ry    5.20 a.u.  14.89 14.89 14.89*2*pi/ulx,y,z
   ENINI  =  367.9     initial cutoff
   ENAUG  =  703.4 eV  augmentation charge cutoff
   NELM   =     60;   NELMIN=  2; NELMDL=  0     # of ELM steps 
   EDIFF  = 0.1E-05   stopping-criterion for ELM
   LREAL  =      T    real-space projection
   NLSPLINE    = F    spline interpolate recip. space projectors
   LCOMPAT=      F    compatible to vasp.4.4
   GGA_COMPAT  = T    GGA compatible to vasp.4.4-vasp.4.6
   LMAXPAW     = -100 max onsite density
   LMAXMIX     =    2 max onsite mixed and CHGCAR
   VOSKOWN=      0    Vosko Wilk Nusair interpolation
   ROPT   =   -0.00025
 Ionic relaxation
   EDIFFG = 0.1E-04   stopping-criterion for IOM
   NSW    =    805    number of steps for IOM
   NBLOCK =      1;   KBLOCK =      1    inner block; outer block 
   IBRION =      6    ionic relax: 0-MD 1-quasi-New 2-CG
   NFREE  =      2    steps in history (QN), initial steepest desc. (CG)
   ISIF   =      2    stress and relaxation
   IWAVPR =     11    prediction:  0-non 1-charg 2-wave 3-comb
   ISYM   =      2    0-nonsym 1-usesym 2-fastsym
   LCORR  =      T    Harris-Foulkes like correction to forces

   POTIM  = 0.5000    time-step for ionic-motion
   TEIN   =    0.0    initial temperature
   TEBEG  =    0.0;   TEEND  =   0.0 temperature during run
   SMASS  =  -3.00    Nose mass-parameter (am)
   estimated Nose-frequenzy (Omega)   =  0.10E-29 period in steps =****** mass=  -0.207E-26a.u.
   SCALEE = 1.0000    scale energy and forces
   NPACO  =    256;   APACO  = 16.0  distance and # of slots for P.C.
   PSTRESS=    0.0 pullay stress

  Mass of Ions in am
   POMASS =  58.69
  Ionic Valenz
   ZVAL   =  16.00
  Atomic Wigner-Seitz radii
   RWIGS  =  -1.00
  virtual crystal weights 
   VCA    =   1.00
   NELECT =    1024.0000    total number of electrons
   NUPDOWN=      -1.0000    fix difference up-down

 DOS related values:
   EMIN   =  10.00;   EMAX   =-10.00  energy-range for DOS
   EFERMI =   0.00
   ISMEAR =     1;   SIGMA  =   0.20  broadening in eV -4-tet -1-fermi 0-gaus

 Electronic relaxation 2 (details)
   IALGO  =     38    algorithm
   LDIAG  =      T    sub-space diagonalisation (order eigenvalues)
   LSUBROT=      F    optimize rotation matrix (better conditioning)
   TURBO    =      0    0=normal 1=particle mesh
   IRESTART =      0    0=no restart 2=restart with 2 vectors
   NREBOOT  =      0    no. of reboots
   NMIN     =      0    reboot dimension
   EREF     =   0.00    reference energy to select bands
   IMIX   =      4    mixing-type and parameters
     AMIX     =   0.40;   BMIX     =  1.00
     AMIX_MAG =   1.60;   BMIX_MAG =  1.00
     AMIN     =   0.10
     WC   =   100.;   INIMIX=   1;  MIXPRE=   1;  MAXMIX= -45

 Intra band minimization:
   WEIMIN = 0.0010     energy-eigenvalue tresh-hold
   EBREAK =  0.39E-09  absolut break condition
   DEPER  =   0.30     relativ break condition  

   TIME   =   0.40     timestep for ELM

  volume/ion in A,a.u.               =       9.54        64.36
  Fermi-wavevector in a.u.,A,eV,Ry     =   1.945236  3.675963 51.483679  3.783944
  Thomas-Fermi vector in A             =   2.973994
 
 Write flags
   LWAVE  =      T    write WAVECAR
   LCHARG =      T    write CHGCAR
   LVTOT  =      F    write LOCPOT, total local potential
   LVHAR  =      F    write LOCPOT, Hartree potential only
   LELF   =      F    write electronic localiz. function (ELF)
   LORBIT =      0    0 simple, 1 ext, 2 COOP (PROOUT)


 Dipole corrections
   LMONO  =      F    monopole corrections only (constant potential shift)
   LDIPOL =      F    correct potential (dipole corrections)
   IDIPOL =      0    1-x, 2-y, 3-z, 4-all directions 
   EPSILON=  1.0000000 bulk dielectric constant

 Exchange correlation treatment:
   GGA     =    --    GGA type
   LEXCH   =     8    internal setting for exchange type
   VOSKOWN=      0    Vosko Wilk Nusair interpolation
   LHFCALC =     F    Hartree Fock is set to
   LHFONE  =     F    Hartree Fock one center treatment
   AEXX    =    0.0000 exact exchange contribution

 Linear response parameters
   LEPSILON=     F    determine dielectric tensor
   LRPA    =     F    only Hartree local field effects (RPA)
   LNABLA  =     F    use nabla operator in PAW spheres
   LVEL    =     F    velocity operator in full k-point grid
   LINTERFAST=   F  fast interpolation
   KINTER  =     0    interpolate to denser k-point grid
   CSHIFT  =0.1000    complex shift for real part using Kramers Kronig
   OMEGAMAX=  -1.0    maximum frequency
   DEG_THRESHOLD= 0.2000000E-02 threshold for treating states as degnerate
   RTIME   =    0.100 relaxation time in fs

 Orbital magnetization related:
   ORBITALMAG=     F  switch on orbital magnetization
   LCHIMAG   =     F  perturbation theory with respect to B field
   DQ        =  0.001000  dq finite difference perturbation B field



--------------------------------------------------------------------------------------------------------


 finite differences with symmetry
 charge density and potential will be updated during run
 spin polarized calculation
 Variant of blocked Davidson
 Davidson routine will perform the subspace rotation
 perform sub-space diagonalisation
    after iterative eigenvector-optimisation
 modified Broyden-mixing scheme, WC =      100.0
 initial mixing is a Kerker type mixing with AMIX =  0.4000 and BMIX =      1.0000
 Hartree-type preconditioning will be used
 using additional bands          136
 real space projection scheme for non local part
 use partial core corrections
 calculate Harris-corrections to forces 
   (improved forces if not selfconsistent)
 use gradient corrections 
 use of overlap-Matrix (Vanderbilt PP)
 Methfessel and Paxton  Order N= 1 SIGMA  =   0.20


--------------------------------------------------------------------------------------------------------


  energy-cutoff  :      367.94
  volume of cell :      610.39
      direct lattice vectors                 reciprocal lattice vectors
     0.000000000  6.732750000  6.732750000    -0.074263859  0.074263859  0.074263859
     6.732750000  0.000000000  6.732750000     0.074263859 -0.074263859  0.074263859
     6.732750000  6.732750000  0.000000000     0.074263859  0.074263859 -0.074263859

  length of vectors
     9.521546362  9.521546362  9.521546362     0.128628778  0.128628778  0.128628778


 
 k-points in units of 2pi/SCALE and weight: Zr 15x15x15                             
   0.00000000  0.00000000  0.00000000       0.008
  -0.01485277  0.01485277  0.01485277       0.064
  -0.02970554  0.02970554  0.02970554       0.064
   0.00000000  0.00000000  0.02970554       0.048
  -0.01485277  0.01485277  0.04455832       0.192
   0.04455832 -0.04455832 -0.01485277       0.192
   0.02970554 -0.02970554  0.00000000       0.096
   0.00000000  0.00000000  0.05941109       0.048
   0.05941109 -0.05941109  0.00000000       0.096
   0.07426386 -0.04455832 -0.01485277       0.192
 
 k-points in reciprocal lattice and weights: Zr 15x15x15                             
   0.00000000  0.00000000  0.00000000       0.008
   0.20000000  0.00000000  0.00000000       0.064
   0.40000000  0.00000000  0.00000000       0.064
   0.20000000  0.20000000  0.00000000       0.048
   0.40000000  0.20000000  0.00000000       0.192
  -0.40000000  0.20000000  0.00000000       0.192
  -0.20000000  0.20000000  0.00000000       0.096
   0.40000000  0.40000000  0.00000000       0.048
  -0.40000000  0.40000000  0.00000000       0.096
  -0.40000000  0.40000000  0.20000000       0.192
 
 position of ions in fractional coordinates (direct lattice) 
   0.00000000  0.00000000  0.00000000
   0.00000000  0.00000000  0.25000000
   0.00000000  0.00000000  0.50000000
   0.00000000  0.00000000  0.75000000
   0.00000000  0.25000000  0.00000000
   0.00000000  0.25000000  0.25000000
   0.00000000  0.25000000  0.50000000
   0.00000000  0.25000000  0.75000000
   0.00000000  0.50000000  0.00000000
   0.00000000  0.50000000  0.25000000
   0.00000000  0.50000000  0.50000000
   0.00000000  0.50000000  0.75000000
   0.00000000  0.75000000  0.00000000
   0.00000000  0.75000000  0.25000000
   0.00000000  0.75000000  0.50000000
   0.00000000  0.75000000  0.75000000
   0.25000000  0.00000000  0.00000000
   0.25000000  0.00000000  0.25000000
   0.25000000  0.00000000  0.50000000
   0.25000000  0.00000000  0.75000000
   0.25000000  0.25000000  0.00000000
   0.25000000  0.25000000  0.25000000
   0.25000000  0.25000000  0.50000000
   0.25000000  0.25000000  0.75000000
   0.25000000  0.50000000  0.00000000
   0.25000000  0.50000000  0.25000000
   0.25000000  0.50000000  0.50000000
   0.25000000  0.50000000  0.75000000
   0.25000000  0.75000000  0.00000000
   0.25000000  0.75000000  0.25000000
   0.25000000  0.75000000  0.50000000
   0.25000000  0.75000000  0.75000000
   0.50000000  0.00000000  0.00000000
   0.50000000  0.00000000  0.25000000
   0.50000000  0.00000000  0.50000000
   0.50000000  0.00000000  0.75000000
   0.50000000  0.25000000  0.00000000
   0.50000000  0.25000000  0.25000000
   0.50000000  0.25000000  0.50000000
   0.50000000  0.25000000  0.75000000
   0.50000000  0.50000000  0.00000000
   0.50000000  0.50000000  0.25000000
   0.50000000  0.50000000  0.50000000
   0.50000000  0.50000000  0.75000000
   0.50000000  0.75000000  0.00000000
   0.50000000  0.75000000  0.25000000
   0.50000000  0.75000000  0.50000000
   0.50000000  0.75000000  0.75000000
   0.75000000  0.00000000  0.00000000
   0.75000000  0.00000000  0.25000000
   0.75000000  0.00000000  0.50000000
   0.75000000  0.00000000  0.75000000
   0.75000000  0.25000000  0.00000000
   0.75000000  0.25000000  0.25000000
   0.75000000  0.25000000  0.50000000
   0.75000000  0.25000000  0.75000000
   0.75000000  0.50000000  0.00000000
   0.75000000  0.50000000  0.25000000
   0.75000000  0.50000000  0.50000000
   0.75000000  0.50000000  0.75000000
   0.75000000  0.75000000  0.00000000
   0.75000000  0.75000000  0.25000000
   0.75000000  0.75000000  0.50000000
   0.75000000  0.75000000  0.75000000
 
 position of ions in cartesian coordinates  (Angst):
   0.00000000  0.00000000  0.00000000
   1.68318750  1.68318750  0.00000000
   3.36637500  3.36637500  0.00000000
   5.04956250  5.04956250  0.00000000
   1.68318750  0.00000000  1.68318750
   3.36637500  1.68318750  1.68318750
   5.04956250  3.36637500  1.68318750
   6.73275000  5.04956250  1.68318750
   3.36637500  0.00000000  3.36637500
   5.04956250  1.68318750  3.36637500
   6.73275000  3.36637500  3.36637500
   8.41593750  5.04956250  3.36637500
   5.04956250  0.00000000  5.04956250
   6.73275000  1.68318750  5.04956250
   8.41593750  3.36637500  5.04956250
  10.09912500  5.04956250  5.04956250
   0.00000000  1.68318750  1.68318750
   1.68318750  3.36637500  1.68318750
   3.36637500  5.04956250  1.68318750
   5.04956250  6.73275000  1.68318750
   1.68318750  1.68318750  3.36637500
   3.36637500  3.36637500  3.36637500
   5.04956250  5.04956250  3.36637500
   6.73275000  6.73275000  3.36637500
   3.36637500  1.68318750  5.04956250
   5.04956250  3.36637500  5.04956250
   6.73275000  5.04956250  5.04956250
   8.41593750  6.73275000  5.04956250
   5.04956250  1.68318750  6.73275000
   6.73275000  3.36637500  6.73275000
   8.41593750  5.04956250  6.73275000
  10.09912500  6.73275000  6.73275000
   0.00000000  3.36637500  3.36637500
   1.68318750  5.04956250  3.36637500
   3.36637500  6.73275000  3.36637500
   5.04956250  8.41593750  3.36637500
   1.68318750  3.36637500  5.04956250
   3.36637500  5.04956250  5.04956250
   5.04956250  6.73275000  5.04956250
   6.73275000  8.41593750  5.04956250
   3.36637500  3.36637500  6.73275000
   5.04956250  5.04956250  6.73275000
   6.73275000  6.73275000  6.73275000
   8.41593750  8.41593750  6.73275000
   5.04956250  3.36637500  8.41593750
   6.73275000  5.04956250  8.41593750
   8.41593750  6.73275000  8.41593750
  10.09912500  8.41593750  8.41593750
   0.00000000  5.04956250  5.04956250
   1.68318750  6.73275000  5.04956250
   3.36637500  8.41593750  5.04956250
   5.04956250 10.09912500  5.04956250
   1.68318750  5.04956250  6.73275000
   3.36637500  6.73275000  6.73275000
   5.04956250  8.41593750  6.73275000
   6.73275000 10.09912500  6.73275000
   3.36637500  5.04956250  8.41593750
   5.04956250  6.73275000  8.41593750
   6.73275000  8.41593750  8.41593750
   8.41593750 10.09912500  8.41593750
   5.04956250  5.04956250 10.09912500
   6.73275000  6.73275000 10.09912500
   8.41593750  8.41593750 10.09912500
  10.09912500 10.09912500 10.09912500
 


--------------------------------------------------------------------------------------------------------


 k-point  1 :   0.0000 0.0000 0.0000  plane waves:    9841
 k-point  2 :   0.2000 0.0000 0.0000  plane waves:    9756
 k-point  3 :   0.4000 0.0000 0.0000  plane waves:    9771
 k-point  4 :   0.2000 0.2000 0.0000  plane waves:    9741
 k-point  5 :   0.4000 0.2000 0.0000  plane waves:    9773
 k-point  6 :  -0.4000 0.2000 0.0000  plane waves:    9783
 k-point  7 :  -0.2000 0.2000 0.0000  plane waves:    9783
 k-point  8 :   0.4000 0.4000 0.0000  plane waves:    9769
 k-point  9 :  -0.4000 0.4000 0.0000  plane waves:    9783
 k-point 10 :  -0.4000 0.4000 0.2000  plane waves:    9814

 maximum and minimum number of plane-waves per node :      9841     9741

 maximum number of plane-waves:      9841
 maximum index in each direction: 
   IXMAX=   15   IYMAX=   14   IZMAX=   14
   IXMIN=  -15   IYMIN=  -15   IZMIN=  -15

 WARNING: aliasing errors must be expected set NGX to  62 to avoid them
 NGY is ok and might be reduce to  60
 NGZ is ok and might be reduce to  60
 aliasing errors are usually negligible using standard VASP settings
 and one can safely disregard these warnings

 serial   3D FFT for wavefunctions
 parallel 3D FFT for charge:
    minimum data exchange during FFTs selected (reduces bandwidth)


 total amount of memory used by VASP on root node   713987. kBytes
========================================================================

   base      :      30000. kBytes
   nonlr-proj:      47454. kBytes
   fftplans  :      15609. kBytes
   grid      :      48902. kBytes
   one-center:       1990. kBytes
   wavefun   :     570032. kBytes
 
     INWAV:  cpu time    0.0010: real time    0.0000
 Broyden mixing: mesh for mixing (old mesh)
   NGX = 29   NGY = 29   NGZ = 29
  (NGX  =120   NGY  =120   NGZ  =120)
  gives a total of  24389 points

 initial charge density was supplied:
 charge density of overlapping atoms calculated
 number of electron    1024.0000000 magnetization      64.0000000
 keeping initial charge density in first step


--------------------------------------------------------------------------------------------------------


 Maximum index for non-local projection operator         4213
 Maximum index for augmentation-charges         1935 (set IRDMAX)


--------------------------------------------------------------------------------------------------------


 First call to EWALD:  gamma=   0.209
 Maximum number of real-space cells 3x 3x 3
 Maximum number of reciprocal cells 3x 3x 3

 FEWALD executed in parallel
    FEWALD:  cpu time    0.0070: real time    0.0069


----------------------------------------- Iteration    1(   1)  ---------------------------------------


    POTLOK:  cpu time    0.4959: real time    0.4972
    SETDIJ:  cpu time    0.1000: real time    0.0995
     EDDAV:  cpu time  285.8995: real time  285.6660
       DOS:  cpu time    0.0100: real time    0.0088
    --------------------------------------------
      LOOP:  cpu time  286.5084: real time  286.2744

 eigenvalue-minimisations  : 29656
 total energy-change (2. order) : 0.1435662E+05  (-0.5225445E+05)
 number of electron    1024.0000000 magnetization      64.0000000
 augmentation part     1024.0000000 magnetization      64.0000000

 Free energy of the ion-electron system (eV)
  ---------------------------------------------------
  alpha Z        PSCENC =     11304.57052840
  Ewald energy   TEWEN  =   -160660.78111346
  -Hartree energ DENC   =    -57619.62050546
  -exchange      EXHF   =         0.00000000
  -V(xc)+E(xc)   XCENC  =      5752.46845392
  PAW double counting   =    172361.15642774  -181272.45834873
  entropy T*S    EENTRO =        -0.00468524
  eigenvalues    EBANDS =       477.99487019
  atomic energy  EATOM  =    224013.29143063
  Solvation  Ediel_sol  =         0.00000000
  ---------------------------------------------------
  free energy    TOTEN  =     14356.61705801 eV

  energy without entropy =    14356.62174325  energy(sigma->0) =    14356.61861976


--------------------------------------------------------------------------------------------------------




----------------------------------------- Iteration    1(   2)  ---------------------------------------


     EDDAV:  cpu time  257.5199: real time  257.3086
       DOS:  cpu time    0.0110: real time    0.0097
    --------------------------------------------
      LOOP:  cpu time  257.5308: real time  257.3189

 eigenvalue-minimisations  : 25920
 total energy-change (2. order) :-0.1341245E+05  (-0.1295789E+05)
 number of electron    1024.0000000 magnetization      64.0000000
 augmentation part     1024.0000000 magnetization      64.0000000

 Free energy of the ion-electron system (eV)
  ---------------------------------------------------
  alpha Z        PSCENC =     11304.57052840
  Ewald energy   TEWEN  =   -160660.78111346
  -Hartree energ DENC   =    -57619.62050546
  -exchange      EXHF   =         0.00000000
  -V(xc)+E(xc)   XCENC  =      5752.46845392
  PAW double counting   =    172361.15642774  -181272.45834873
  entropy T*S    EENTRO =        -0.00427417
  eigenvalues    EBANDS =    -12934.45604607
  atomic energy  EATOM  =    224013.29143063
  Solvation  Ediel_sol  =         0.00000000
  ---------------------------------------------------
  free energy    TOTEN  =       944.16655282 eV

  energy without entropy =      944.17082699  energy(sigma->0) =      944.16797754


--------------------------------------------------------------------------------------------------------




----------------------------------------- Iteration    1(   3)  ---------------------------------------


     EDDAV:  cpu time  263.1570: real time  262.9408
       DOS:  cpu time    0.0110: real time    0.0104
    --------------------------------------------
      LOOP:  cpu time  263.1680: real time  262.9517

 eigenvalue-minimisations  : 26608
 total energy-change (2. order) :-0.1298138E+04  (-0.1079704E+04)
 number of electron    1024.0000000 magnetization      64.0000000
 augmentation part     1024.0000000 magnetization      64.0000000

 Free energy of the ion-electron system (eV)
  ---------------------------------------------------
  alpha Z        PSCENC =     11304.57052840
  Ewald energy   TEWEN  =   -160660.78111346
  -Hartree energ DENC   =    -57619.62050546
  -exchange      EXHF   =         0.00000000
  -V(xc)+E(xc)   XCENC  =      5752.46845392
  PAW double counting   =    172361.15642774  -181272.45834873
  entropy T*S    EENTRO =         0.02154368
  eigenvalues    EBANDS =    -14232.62026111
  atomic energy  EATOM  =    224013.29143063
  Solvation  Ediel_sol  =         0.00000000
  ---------------------------------------------------
  free energy    TOTEN  =      -353.97184437 eV

  energy without entropy =     -353.99338805  energy(sigma->0) =     -353.97902560


--------------------------------------------------------------------------------------------------------




----------------------------------------- Iteration    1(   4)  ---------------------------------------


     EDDAV:  cpu time  271.5877: real time  271.3641
       DOS:  cpu time    0.0110: real time    0.0107
    --------------------------------------------
      LOOP:  cpu time  271.5987: real time  271.3754

 eigenvalue-minimisations  : 27736
 total energy-change (2. order) :-0.6515360E+02  (-0.6379749E+02)
 number of electron    1024.0000000 magnetization      64.0000000
 augmentation part     1024.0000000 magnetization      64.0000000

 Free energy of the ion-electron system (eV)
  ---------------------------------------------------
  alpha Z        PSCENC =     11304.57052840
  Ewald energy   TEWEN  =   -160660.78111346
  -Hartree energ DENC   =    -57619.62050546
  -exchange      EXHF   =         0.00000000
  -V(xc)+E(xc)   XCENC  =      5752.46845392
  PAW double counting   =    172361.15642774  -181272.45834873
  entropy T*S    EENTRO =        -0.01311772
  eigenvalues    EBANDS =    -14297.73919891
  atomic energy  EATOM  =    224013.29143063
  Solvation  Ediel_sol  =         0.00000000
  ---------------------------------------------------
  free energy    TOTEN  =      -419.12544356 eV

  energy without entropy =     -419.11232585  energy(sigma->0) =     -419.12107099


--------------------------------------------------------------------------------------------------------




----------------------------------------- Iteration    1(   5)  ---------------------------------------


     EDDAV:  cpu time  270.7388: real time  270.5167
       DOS:  cpu time    0.0100: real time    0.0107
    CHARGE:  cpu time    9.5825: real time    9.5744
    MIXING:  cpu time    0.0090: real time    0.0092
    --------------------------------------------
      LOOP:  cpu time  280.3414: real time  280.1117

 eigenvalue-minimisations  : 27712
 total energy-change (2. order) :-0.9457514E+00  (-0.9453367E+00)
 number of electron    1024.0005019 magnetization      53.9962365
 augmentation part      575.3272478 magnetization      44.2355053

 Broyden mixing:
  rms(total) = 0.66379E+01    rms(broyden)= 0.66295E+01
  rms(prec ) = 0.90921E+01
  weight for this iteration     100.00

 Free energy of the ion-electron system (eV)
  ---------------------------------------------------
  alpha Z        PSCENC =     11304.57052840
  Ewald energy   TEWEN  =   -160660.78111346
  -Hartree energ DENC   =    -57619.62050546
  -exchange      EXHF   =         0.00000000
  -V(xc)+E(xc)   XCENC  =      5752.46845392
  PAW double counting   =    172361.15642774  -181272.45834873
  entropy T*S    EENTRO =        -0.01330683
  eigenvalues    EBANDS =    -14298.68476123
  atomic energy  EATOM  =    224013.29143063
  Solvation  Ediel_sol  =         0.00000000
  ---------------------------------------------------
  free energy    TOTEN  =      -420.07119500 eV

  energy without entropy =     -420.05788817  energy(sigma->0) =     -420.06675939


--------------------------------------------------------------------------------------------------------




----------------------------------------- Iteration    1(   6)  ---------------------------------------


    POTLOK:  cpu time    0.4999: real time    0.5005
    SETDIJ:  cpu time    0.1000: real time    0.0989
     EDDAV:  cpu time  266.4915: real time  266.2724
       DOS:  cpu time    0.0110: real time    0.0105
    CHARGE:  cpu time    9.9175: real time    9.9098
    MIXING:  cpu time    0.0100: real time    0.0100
    --------------------------------------------
      LOOP:  cpu time  277.0309: real time  276.8029

 eigenvalue-minimisations  : 27336
 total energy-change (2. order) : 0.4362897E+02  (-0.4848617E+02)
 number of electron    1024.0005468 magnetization      47.0802330
 augmentation part      622.9959720 magnetization      41.1237097

 Broyden mixing:
  rms(total) = 0.36679E+01    rms(broyden)= 0.36667E+01
  rms(prec ) = 0.46284E+01
  weight for this iteration     100.00

 eigenvalues of (default mixing * dielectric matrix)
  average eigenvalue GAMMA=   0.6445
  0.6445

 Free energy of the ion-electron system (eV)
  ---------------------------------------------------
  alpha Z        PSCENC =     11304.57052840
  Ewald energy   TEWEN  =   -160660.78111346
  -Hartree energ DENC   =    -54685.29710582
  -exchange      EXHF   =         0.00000000
  -V(xc)+E(xc)   XCENC  =      5636.31757092
  PAW double counting   =    169523.09644321  -178155.04925807
  entropy T*S    EENTRO =        -0.20230080
  eigenvalues    EBANDS =    -17352.38842402
  atomic energy  EATOM  =    224013.29143063
  Solvation  Ediel_sol  =         0.00000000
  ---------------------------------------------------
  free energy    TOTEN  =      -376.44222900 eV

  energy without entropy =     -376.23992820  energy(sigma->0) =     -376.37479540


--------------------------------------------------------------------------------------------------------




----------------------------------------- Iteration    1(   7)  ---------------------------------------


    POTLOK:  cpu time    0.5059: real time    0.5052
    SETDIJ:  cpu time    0.0990: real time    0.0988
     EDDAV:  cpu time  265.8236: real time  265.6053
       DOS:  cpu time    0.0100: real time    0.0100
    CHARGE:  cpu time    9.9375: real time    9.9294
    MIXING:  cpu time    0.0110: real time    0.0105
    --------------------------------------------
      LOOP:  cpu time  276.3870: real time  276.1599

 eigenvalue-minimisations  : 27200
 total energy-change (2. order) : 0.1705900E+02  (-0.7627053E+01)
 number of electron    1024.0005299 magnetization      41.2614069
 augmentation part      605.1577281 magnetization      33.8825204

 Broyden mixing:
  rms(total) = 0.60327E+00    rms(broyden)= 0.60239E+00
  rms(prec ) = 0.76083E+00
  weight for this iteration     100.00

 eigenvalues of (default mixing * dielectric matrix)
  average eigenvalue GAMMA=   0.8268
  1.0266  0.6269

 Free energy of the ion-electron system (eV)
  ---------------------------------------------------
  alpha Z        PSCENC =     11304.57052840
  Ewald energy   TEWEN  =   -160660.78111346
  -Hartree energ DENC   =    -55560.38392393
  -exchange      EXHF   =         0.00000000
  -V(xc)+E(xc)   XCENC  =      5670.16330780
  PAW double counting   =    171981.68645349  -180874.97001136
  entropy T*S    EENTRO =        -0.06171792
  eigenvalues    EBANDS =    -16232.89818271
  atomic energy  EATOM  =    224013.29143063
  Solvation  Ediel_sol  =         0.00000000
  ---------------------------------------------------
  free energy    TOTEN  =      -359.38322906 eV

  energy without entropy =     -359.32151114  energy(sigma->0) =     -359.36265642


--------------------------------------------------------------------------------------------------------




----------------------------------------- Iteration    1(   8)  ---------------------------------------


    POTLOK:  cpu time    0.4949: real time    0.4952
    SETDIJ:  cpu time    0.1000: real time    0.0989
     EDDAV:  cpu time  270.8748: real time  270.6524
       DOS:  cpu time    0.0110: real time    0.0106
    CHARGE:  cpu time    9.7515: real time    9.7435
    MIXING:  cpu time    0.0110: real time    0.0112
    --------------------------------------------
      LOOP:  cpu time  281.2432: real time  281.0125

 eigenvalue-minimisations  : 28136
 total energy-change (2. order) : 0.1218908E+00  (-0.7202439E-01)
 number of electron    1024.0005302 magnetization      38.4546112
 augmentation part      605.4351615 magnetization      32.3679786

 Broyden mixing:
  rms(total) = 0.26764E+00    rms(broyden)= 0.26757E+00
  rms(prec ) = 0.35807E+00
  weight for this iteration     100.00

 eigenvalues of (default mixing * dielectric matrix)
  average eigenvalue GAMMA=   1.1601
  0.6488  0.9097  1.9218

 Free energy of the ion-electron system (eV)
  ---------------------------------------------------
  alpha Z        PSCENC =     11304.57052840
  Ewald energy   TEWEN  =   -160660.78111346
  -Hartree energ DENC   =    -55396.76056993
  -exchange      EXHF   =         0.00000000
  -V(xc)+E(xc)   XCENC  =      5664.39061819
  PAW double counting   =    173106.70640395  -182104.17214975
  entropy T*S    EENTRO =        -0.06961157
  eigenvalues    EBANDS =    -16286.43687469
  atomic energy  EATOM  =    224013.29143063
  Solvation  Ediel_sol  =         0.00000000
  ---------------------------------------------------
  free energy    TOTEN  =      -359.26133822 eV

  energy without entropy =     -359.19172665  energy(sigma->0) =     -359.23813436


--------------------------------------------------------------------------------------------------------




----------------------------------------- Iteration    1(   9)  ---------------------------------------


    POTLOK:  cpu time    0.4979: real time    0.4982
    SETDIJ:  cpu time    0.1010: real time    0.0997
     EDDAV:  cpu time  270.2089: real time  269.9895
       DOS:  cpu time    0.0110: real time    0.0107
    CHARGE:  cpu time    9.8075: real time    9.7998
    MIXING:  cpu time    0.0130: real time    0.0118
    --------------------------------------------
      LOOP:  cpu time  280.6403: real time  280.4104

 eigenvalue-minimisations  : 28024
 total energy-change (2. order) : 0.1339441E+00  (-0.1451315E-01)
 number of electron    1024.0005307 magnetization      38.7950316
 augmentation part      606.0019860 magnetization      33.4105128

 Broyden mixing:
  rms(total) = 0.69331E-01    rms(broyden)= 0.69309E-01
  rms(prec ) = 0.73127E-01
  weight for this iteration     100.00

 eigenvalues of (default mixing * dielectric matrix)
  average eigenvalue GAMMA=   1.1026
  2.1057  0.9859  0.6594  0.6594

 Free energy of the ion-electron system (eV)
  ---------------------------------------------------
  alpha Z        PSCENC =     11304.57052840
  Ewald energy   TEWEN  =   -160660.78111346
  -Hartree energ DENC   =    -55265.11600724
  -exchange      EXHF   =         0.00000000
  -V(xc)+E(xc)   XCENC  =      5659.78363180
  PAW double counting   =    173986.16193982  -183056.12482210
  entropy T*S    EENTRO =        -0.07537184
  eigenvalues    EBANDS =    -16340.83761007
  atomic energy  EATOM  =    224013.29143063
  Solvation  Ediel_sol  =         0.00000000
  ---------------------------------------------------
  free energy    TOTEN  =      -359.12739407 eV

  energy without entropy =     -359.05202223  energy(sigma->0) =     -359.10227012


--------------------------------------------------------------------------------------------------------




----------------------------------------- Iteration    1(  10)  ---------------------------------------


    POTLOK:  cpu time    0.5089: real time    0.5091
    SETDIJ:  cpu time    0.1030: real time    0.1018
     EDDAV:  cpu time  277.7578: real time  277.5296
       DOS:  cpu time    0.0100: real time    0.0104
    CHARGE:  cpu time    9.7585: real time    9.7511
    MIXING:  cpu time    0.0120: real time    0.0121
    --------------------------------------------
      LOOP:  cpu time  288.1512: real time  287.9149

 eigenvalue-minimisations  : 29064
 total energy-change (2. order) :-0.3857078E-02  (-0.1099181E-02)
 number of electron    1024.0005307 magnetization      39.3212404
 augmentation part      605.9664504 magnetization      33.8483818

 Broyden mixing:
  rms(total) = 0.33341E-01    rms(broyden)= 0.33319E-01
  rms(prec ) = 0.34947E-01
  weight for this iteration     100.00

 eigenvalues of (default mixing * dielectric matrix)
  average eigenvalue GAMMA=   1.2642
  2.3352  1.6852  1.0264  0.6371  0.6371

 Free energy of the ion-electron system (eV)
  ---------------------------------------------------
  alpha Z        PSCENC =     11304.57052840
  Ewald energy   TEWEN  =   -160660.78111346
  -Hartree energ DENC   =    -55257.01526601
  -exchange      EXHF   =         0.00000000
  -V(xc)+E(xc)   XCENC  =      5659.53870593
  PAW double counting   =    174136.46282830  -183213.94501114
  entropy T*S    EENTRO =        -0.07503585
  eigenvalues    EBANDS =    -16341.17831795
  atomic energy  EATOM  =    224013.29143063
  Solvation  Ediel_sol  =         0.00000000
  ---------------------------------------------------
  free energy    TOTEN  =      -359.13125115 eV

  energy without entropy =     -359.05621529  energy(sigma->0) =     -359.10623920


--------------------------------------------------------------------------------------------------------




----------------------------------------- Iteration    1(  11)  ---------------------------------------


    POTLOK:  cpu time    0.5009: real time    0.5003
    SETDIJ:  cpu time    0.1000: real time    0.0995
     EDDAV:  cpu time  271.1298: real time  270.9089
       DOS:  cpu time    0.0100: real time    0.0102
    CHARGE:  cpu time    9.5166: real time    9.5087
    MIXING:  cpu time    0.0130: real time    0.0127
    --------------------------------------------
      LOOP:  cpu time  281.2702: real time  281.0411

 eigenvalue-minimisations  : 28464
 total energy-change (2. order) :-0.2413385E-02  (-0.3111044E-03)
 number of electron    1024.0005307 magnetization      39.3102542
 augmentation part      605.9340008 magnetization      33.7230634

 Broyden mixing:
  rms(total) = 0.83703E-02    rms(broyden)= 0.83566E-02
  rms(prec ) = 0.10565E-01
  weight for this iteration     100.00

 eigenvalues of (default mixing * dielectric matrix)
  average eigenvalue GAMMA=   1.1902
  2.4107  1.7004  1.0352  0.6862  0.6862  0.6223

 Free energy of the ion-electron system (eV)
  ---------------------------------------------------
  alpha Z        PSCENC =     11304.57052840
  Ewald energy   TEWEN  =   -160660.78111346
  -Hartree energ DENC   =    -55253.80172176
  -exchange      EXHF   =         0.00000000
  -V(xc)+E(xc)   XCENC  =      5659.41157257
  PAW double counting   =    174269.22277002  -183350.35038056
  entropy T*S    EENTRO =        -0.07510681
  eigenvalues    EBANDS =    -16340.62164357
  atomic energy  EATOM  =    224013.29143063
  Solvation  Ediel_sol  =         0.00000000
  ---------------------------------------------------
  free energy    TOTEN  =      -359.13366453 eV

  energy without entropy =     -359.05855772  energy(sigma->0) =     -359.10862893


--------------------------------------------------------------------------------------------------------




----------------------------------------- Iteration    1(  12)  ---------------------------------------


    POTLOK:  cpu time    0.5009: real time    0.5008
    SETDIJ:  cpu time    0.1000: real time    0.6790
     EDDAV:  cpu time  261.6742: real time  261.4599
       DOS:  cpu time    0.0110: real time    0.0105
    CHARGE:  cpu time    9.4886: real time    9.4816
    MIXING:  cpu time    0.0130: real time    0.0132
    --------------------------------------------
      LOOP:  cpu time  271.7887: real time  272.1467

 eigenvalue-minimisations  : 27208
 total energy-change (2. order) :-0.2526643E-04  (-0.3610573E-04)
 number of electron    1024.0005307 magnetization      39.2954894
 augmentation part      605.9667918 magnetization      33.7098336

 Broyden mixing:
  rms(total) = 0.24356E-02    rms(broyden)= 0.24254E-02
  rms(prec ) = 0.26923E-02
  weight for this iteration     100.00

 eigenvalues of (default mixing * dielectric matrix)
  average eigenvalue GAMMA=   1.2147
  2.4563  1.5571  1.5266  0.9918  0.6742  0.6742  0.6229

 Free energy of the ion-electron system (eV)
  ---------------------------------------------------
  alpha Z        PSCENC =     11304.57052840
  Ewald energy   TEWEN  =   -160660.78111346
  -Hartree energ DENC   =    -55251.38282269
  -exchange      EXHF   =         0.00000000
  -V(xc)+E(xc)   XCENC  =      5659.31690622
  PAW double counting   =    174291.23340586  -183372.43908983
  entropy T*S    EENTRO =        -0.07559158
  eigenvalues    EBANDS =    -16342.86734335
  atomic energy  EATOM  =    224013.29143063
  Solvation  Ediel_sol  =         0.00000000
  ---------------------------------------------------
  free energy    TOTEN  =      -359.13368980 eV

  energy without entropy =     -359.05809822  energy(sigma->0) =     -359.10849260


--------------------------------------------------------------------------------------------------------




----------------------------------------- Iteration    1(  13)  ---------------------------------------


    POTLOK:  cpu time    0.4929: real time    0.4938
    SETDIJ:  cpu time    0.1010: real time    0.0994
     EDDAV:  cpu time  238.3728: real time  238.1777
       DOS:  cpu time    0.0100: real time    0.0102
    CHARGE:  cpu time    9.4766: real time    9.4688
    MIXING:  cpu time    0.0140: real time    0.0142
    --------------------------------------------
      LOOP:  cpu time  248.4702: real time  248.2655

 eigenvalue-minimisations  : 24088
 total energy-change (2. order) :-0.2290995E-05  (-0.1847746E-05)
 number of electron    1024.0005307 magnetization      39.2940499
 augmentation part      605.9748724 magnetization      33.7094070

 Broyden mixing:
  rms(total) = 0.19894E-02    rms(broyden)= 0.19893E-02
  rms(prec ) = 0.27507E-02
  weight for this iteration     100.00

 eigenvalues of (default mixing * dielectric matrix)
  average eigenvalue GAMMA=   1.2965
  2.4895  2.2318  1.7142  1.0767  0.6371  0.6371  0.7929  0.7929

 Free energy of the ion-electron system (eV)
  ---------------------------------------------------
  alpha Z        PSCENC =     11304.57052840
  Ewald energy   TEWEN  =   -160660.78111346
  -Hartree energ DENC   =    -55251.19164665
  -exchange      EXHF   =         0.00000000
  -V(xc)+E(xc)   XCENC  =      5659.30581953
  PAW double counting   =    174306.16896233  -183387.02114661
  entropy T*S    EENTRO =        -0.07574078
  eigenvalues    EBANDS =    -16343.40078548
  atomic energy  EATOM  =    224013.29143063
  Solvation  Ediel_sol  =         0.00000000
  ---------------------------------------------------
  free energy    TOTEN  =      -359.13369209 eV

  energy without entropy =     -359.05795131  energy(sigma->0) =     -359.10844516


--------------------------------------------------------------------------------------------------------




----------------------------------------- Iteration    1(  14)  ---------------------------------------


    POTLOK:  cpu time    0.5119: real time    0.5121
    SETDIJ:  cpu time    0.1030: real time    0.1014
     EDDAV:  cpu time  240.1945: real time  239.9969
       DOS:  cpu time    0.0100: real time    0.0104
    CHARGE:  cpu time    9.5236: real time    9.5162
    MIXING:  cpu time    0.0140: real time    0.0146
    --------------------------------------------
      LOOP:  cpu time  250.3579: real time  250.1524

 eigenvalue-minimisations  : 24400
 total energy-change (2. order) : 0.2726962E-04  (-0.1445565E-05)
 number of electron    1024.0005307 magnetization      39.2951667
 augmentation part      605.9675268 magnetization      33.7108365

 Broyden mixing:
  rms(total) = 0.26366E-03    rms(broyden)= 0.26219E-03
  rms(prec ) = 0.31005E-03
  weight for this iteration     100.00

 eigenvalues of (default mixing * dielectric matrix)
  average eigenvalue GAMMA=   1.2696
  2.5866  2.4514  1.6763  1.1217  0.8358  0.8358  0.6437  0.6437  0.6313

 Free energy of the ion-electron system (eV)
  ---------------------------------------------------
  alpha Z        PSCENC =     11304.57052840
  Ewald energy   TEWEN  =   -160660.78111346
  -Hartree energ DENC   =    -55252.02872738
  -exchange      EXHF   =         0.00000000
  -V(xc)+E(xc)   XCENC  =      5659.33694875
  PAW double counting   =    174314.77936956  -183395.30608801
  entropy T*S    EENTRO =        -0.07567273
  eigenvalues    EBANDS =    -16342.92034059
  atomic energy  EATOM  =    224013.29143063
  Solvation  Ediel_sol  =         0.00000000
  ---------------------------------------------------
  free energy    TOTEN  =      -359.13366482 eV

  energy without entropy =     -359.05799209  energy(sigma->0) =     -359.10844058


--------------------------------------------------------------------------------------------------------




----------------------------------------- Iteration    1(  15)  ---------------------------------------


    POTLOK:  cpu time    0.5019: real time    0.5019
    SETDIJ:  cpu time    0.1000: real time    0.0995
     EDDAV:  cpu time  160.2796: real time  160.1483
       DOS:  cpu time    0.0100: real time    0.0099
    CHARGE:  cpu time    9.5086: real time    9.5010
    MIXING:  cpu time    0.0150: real time    0.0154
    --------------------------------------------
      LOOP:  cpu time  170.4171: real time  170.2768

 eigenvalue-minimisations  : 13872
 total energy-change (2. order) : 0.2209970E-05  (-0.4561858E-07)
 number of electron    1024.0005307 magnetization      39.2959494
 augmentation part      605.9667070 magnetization      33.7116399

 Broyden mixing:
  rms(total) = 0.10626E-03    rms(broyden)= 0.10559E-03
  rms(prec ) = 0.11152E-03
  weight for this iteration     100.00

 eigenvalues of (default mixing * dielectric matrix)
  average eigenvalue GAMMA=   1.2301
  2.6003  2.4659  1.6551  1.1600  0.9025  0.9025  0.6974  0.6464  0.6464  0.6244

 Free energy of the ion-electron system (eV)
  ---------------------------------------------------
  alpha Z        PSCENC =     11304.57052840
  Ewald energy   TEWEN  =   -160660.78111346
  -Hartree energ DENC   =    -55252.11345639
  -exchange      EXHF   =         0.00000000
  -V(xc)+E(xc)   XCENC  =      5659.34022796
  PAW double counting   =    174315.14903051  -183395.64361839
  entropy T*S    EENTRO =        -0.07565117
  eigenvalues    EBANDS =    -16342.87104071
  atomic energy  EATOM  =    224013.29143063
  Solvation  Ediel_sol  =         0.00000000
  ---------------------------------------------------
  free energy    TOTEN  =      -359.13366261 eV

  energy without entropy =     -359.05801144  energy(sigma->0) =     -359.10844555


--------------------------------------------------------------------------------------------------------




----------------------------------------- Iteration    1(  16)  ---------------------------------------


    POTLOK:  cpu time    0.4929: real time    0.4937
    SETDIJ:  cpu time    0.1000: real time    0.0995
     EDDAV:  cpu time  158.8479: real time  158.7168
       DOS:  cpu time    0.0110: real time    0.0105
    --------------------------------------------
      LOOP:  cpu time  159.4528: real time  159.3211

 eigenvalue-minimisations  : 13656
 total energy-change (2. order) :-0.4547765E-06  (-0.7464068E-08)
 number of electron    1024.0005307 magnetization      39.2959494
 augmentation part      605.9667070 magnetization      33.7116399

 Free energy of the ion-electron system (eV)
  ---------------------------------------------------
  alpha Z        PSCENC =     11304.57052840
  Ewald energy   TEWEN  =   -160660.78111346
  -Hartree energ DENC   =    -55252.10435375
  -exchange      EXHF   =         0.00000000
  -V(xc)+E(xc)   XCENC  =      5659.34000065
  PAW double counting   =    174314.94688109  -183395.44121915
  entropy T*S    EENTRO =        -0.07564712
  eigenvalues    EBANDS =    -16342.88017037
  atomic energy  EATOM  =    224013.29143063
  Solvation  Ediel_sol  =         0.00000000
  ---------------------------------------------------
  free energy    TOTEN  =      -359.13366306 eV

  energy without entropy =     -359.05801594  energy(sigma->0) =     -359.10844736


--------------------------------------------------------------------------------------------------------




 average (electrostatic) potential at core
  the test charge radii are     0.8614
  (the norm of the test charge is              1.0000)
       1 -77.8414       2 -77.8414       3 -77.8414       4 -77.8414       5 -77.8414
       6 -77.8414       7 -77.8414       8 -77.8414       9 -77.8414      10 -77.8414
      11 -77.8414      12 -77.8414      13 -77.8414      14 -77.8414      15 -77.8414
      16 -77.8414      17 -77.8414      18 -77.8414      19 -77.8414      20 -77.8414
      21 -77.8414      22 -77.8414      23 -77.8414      24 -77.8414      25 -77.8414
      26 -77.8414      27 -77.8414      28 -77.8414      29 -77.8414      30 -77.8414
      31 -77.8414      32 -77.8414      33 -77.8414      34 -77.8414      35 -77.8414
      36 -77.8414      37 -77.8414      38 -77.8414      39 -77.8414      40 -77.8414
      41 -77.8414      42 -77.8414      43 -77.8414      44 -77.8414      45 -77.8414
      46 -77.8414      47 -77.8414      48 -77.8414      49 -77.8414      50 -77.8414
      51 -77.8414      52 -77.8414      53 -77.8414      54 -77.8414      55 -77.8414
      56 -77.8414      57 -77.8414      58 -77.8414      59 -77.8414      60 -77.8414
      61 -77.8414      62 -77.8414      63 -77.8414      64 -77.8414
 
 
 
 E-fermi :   9.6422     XC(G=0): -14.6431     alpha+bet :-16.9768


 spin component 1

 k-point     1 :       0.0000    0.0000    0.0000
  band No.  band energies     occupation 
      1     -54.7131      1.00000
      2     -54.7131      1.00000
      3     -54.7131      1.00000
      4     -54.7131      1.00000
      5     -54.6834      1.00000
      6     -54.6834      1.00000
      7     -54.6834      1.00000
      8     -54.6505      1.00000
      9     -54.6505      1.00000
     10     -54.6505      1.00000
     11     -54.6505      1.00000
     12     -54.6505      1.00000
     13     -54.6505      1.00000
     14     -54.6504      1.00000
     15     -54.6504      1.00000
     16     -54.6504      1.00000
     17     -54.6504      1.00000
     18     -54.6504      1.00000
     19     -54.6504      1.00000
     20     -54.6504      1.00000
     21     -54.6504      1.00000
     22     -54.6504      1.00000
     23     -54.6504      1.00000
     24     -54.6504      1.00000
     25     -54.6504      1.00000
     26     -54.6504      1.00000
     27     -54.6504      1.00000
     28     -54.6504      1.00000
     29     -54.6504      1.00000
     30     -54.6504      1.00000
     31     -54.6504      1.00000
     32     -54.6103      1.00000
     33     -54.6103      1.00000
     34     -54.6103      1.00000
     35     -54.6103      1.00000
     36     -54.6103      1.00000
     37     -54.6103      1.00000
     38     -54.6103      1.00000
     39     -54.6103      1.00000
     40     -54.6103      1.00000
     41     -54.6103      1.00000
     42     -54.6103      1.00000
     43     -54.6103      1.00000
     44     -54.5901      1.00000
     45     -54.5901      1.00000
     46     -54.5901      1.00000
     47     -54.5901      1.00000
     48     -54.5901      1.00000
     49     -54.5901      1.00000
     50     -54.5901      1.00000
     51     -54.5901      1.00000
     52     -54.5901      1.00000
     53     -54.5901      1.00000
     54     -54.5901      1.00000
     55     -54.5901      1.00000
     56     -54.5294      1.00000
     57     -54.5294      1.00000
     58     -54.5294      1.00000
     59     -54.5294      1.00000
     60     -54.5294      1.00000
     61     -54.5294      1.00000
     62     -54.5294      1.00000
     63     -54.5294      1.00000
     64     -54.5232      1.00000
     65     -54.5232      1.00000
     66     -54.5232      1.00000
     67     -54.5232      1.00000
     68     -54.5232      1.00000
     69     -54.5232      1.00000
     70     -54.5058      1.00000
     71     -54.5058      1.00000
     72     -54.5058      1.00000
     73     -54.5058      1.00000
     74     -54.5058      1.00000
     75     -54.5058      1.00000
     76     -54.5058      1.00000
     77     -54.5058      1.00000
     78     -54.5058      1.00000
     79     -54.5058      1.00000
     80     -54.5058      1.00000
     81     -54.5058      1.00000
     82     -54.4969      1.00000
     83     -54.4969      1.00000
     84     -54.4969      1.00000
     85     -54.4969      1.00000
     86     -54.4969      1.00000
     87     -54.4969      1.00000
     88     -54.4968      1.00000
     89     -54.4968      1.00000
     90     -54.4968      1.00000
     91     -54.4968      1.00000
     92     -54.4968      1.00000
     93     -54.4968      1.00000
     94     -54.4968      1.00000
     95     -54.4968      1.00000
     96     -54.4968      1.00000
     97     -54.4968      1.00000
     98     -54.4968      1.00000
     99     -54.4968      1.00000
    100     -54.4968      1.00000
    101     -54.4968      1.00000
    102     -54.4968      1.00000
    103     -54.4968      1.00000
    104     -54.4968      1.00000
    105     -54.4968      1.00000
    106     -54.4933      1.00000
    107     -54.4933      1.00000
    108     -54.4933      1.00000
    109     -54.4933      1.00000
    110     -54.4933      1.00000
    111     -54.4933      1.00000
    112     -54.4861      1.00000
    113     -54.4861      1.00000
    114     -54.4861      1.00000
    115     -54.4861      1.00000
[...]
      1.683188  3.366375  1.683188    -0.004741    0.000288    0.124910  
      3.366375  5.049563  1.683188    -0.004741    0.000288    0.124910  
      5.049563  6.732750  1.683188    -0.004741    0.000288    0.124910  
      1.683188  1.683188  3.366375    -0.004741    0.000288    0.124910  
      3.366375  3.366375  3.366375    -0.004741    0.000288    0.124910  
      5.049563  5.049563  3.366375    -0.004741    0.000288    0.124910  
      6.732750  6.732750  3.366375    -0.004741    0.000288    0.124910  
      3.366375  1.683188  5.049563    -0.004741    0.000288    0.124910  
      5.049563  3.366375  5.049563    -0.004741    0.000288    0.124910  
      6.732750  5.049563  5.049563    -0.004741    0.000288    0.124910  
      8.415938  6.732750  5.049563    -0.004741    0.000288    0.124910  
      5.049563  1.683188  6.732750    -0.004741    0.000288    0.124910  
      6.732750  3.366375  6.732750    -0.004741    0.000288    0.124910  
      8.415938  5.049563  6.732750    -0.004741    0.000288    0.124910  
     10.099125  6.732750  6.732750    -0.004741    0.000288    0.124910  
      0.000000  3.366375  3.366375    -0.004741    0.000288    0.124910  
      1.683188  5.049563  3.366375    -0.004741    0.000288    0.124910  
      3.366375  6.732750  3.366375    -0.004741    0.000288    0.124910  
      5.049563  8.415938  3.366375    -0.004741    0.000288    0.124910  
      1.683188  3.366375  5.049563    -0.004741    0.000288    0.124910  
      3.366375  5.049563  5.049563    -0.004741    0.000288    0.124910  
      5.049563  6.732750  5.049563    -0.004741    0.000288    0.124910  
      6.732750  8.415938  5.049563    -0.004741    0.000288    0.124910  
      3.366375  3.366375  6.732750    -0.004741    0.000288    0.124910  
      5.049563  5.049563  6.732750    -0.004741    0.000288    0.124910  
      6.732750  6.732750  6.732750    -0.004741    0.000288    0.124910  
      8.415938  8.415938  6.732750    -0.004741    0.000288    0.124910  
      5.049563  3.366375  8.415938    -0.004741    0.000288    0.124910  
      6.732750  5.049563  8.415938    -0.004741    0.000288    0.124910  
      8.415938  6.732750  8.415938    -0.004741    0.000288    0.124910  
     10.099125  8.415938  8.415938    -0.004741    0.000288    0.124910  
      0.000000  5.049563  5.049563    -0.004741    0.000288    0.124910  
      1.683188  6.732750  5.049563    -0.004741    0.000288    0.124910  
      3.366375  8.415938  5.049563    -0.004741    0.000288    0.124910  
      5.049563 10.099125  5.049563    -0.004741    0.000288    0.124910  
      1.683188  5.049563  6.732750    -0.004741    0.000288    0.124910  
      3.366375  6.732750  6.732750    -0.004741    0.000288    0.124910  
      5.049563  8.415938  6.732750    -0.004741    0.000288    0.124910  
      6.732750 10.099125  6.732750    -0.004741    0.000288    0.124910  
      3.366375  5.049563  8.415938    -0.004741    0.000288    0.124910  
      5.049563  6.732750  8.415938    -0.004741    0.000288    0.124910  
      6.732750  8.415938  8.415938    -0.004741    0.000288    0.124910  
      8.415938 10.099125  8.415938    -0.004741    0.000288    0.124910  
      5.049563  5.049563 10.099125    -0.004741    0.000288    0.124910  
      6.732750  6.732750 10.099125    -0.004741    0.000288    0.124910  
      8.415938  8.415938 10.099125    -0.004741    0.000288    0.124910  
     10.099125 10.099125 10.099125    -0.004741    0.000288    0.124910  
 
 192 f  =    0.000002 THz     0.000012 2PiTHz    0.000063 cm-1     0.000008 meV
             X         Y         Z           dx          dy          dz
      0.000000  0.000000  0.000000     0.007313    0.124786   -0.000010  
      1.683188  1.683188  0.000000     0.007313    0.124786   -0.000010  
      3.366375  3.366375  0.000000     0.007313    0.124786   -0.000010  
      5.049563  5.049563  0.000000     0.007313    0.124786   -0.000010  
      1.683188  0.000000  1.683188     0.007313    0.124786   -0.000010  
      3.366375  1.683188  1.683188     0.007313    0.124786   -0.000010  
      5.049563  3.366375  1.683188     0.007313    0.124786   -0.000010  
      6.732750  5.049563  1.683188     0.007313    0.124786   -0.000010  
      3.366375  0.000000  3.366375     0.007313    0.124786   -0.000010  
      5.049563  1.683188  3.366375     0.007313    0.124786   -0.000010  
      6.732750  3.366375  3.366375     0.007313    0.124786   -0.000010  
      8.415938  5.049563  3.366375     0.007313    0.124786   -0.000010  
      5.049563  0.000000  5.049563     0.007313    0.124786   -0.000010  
      6.732750  1.683188  5.049563     0.007313    0.124786   -0.000010  
      8.415938  3.366375  5.049563     0.007313    0.124786   -0.000010  
     10.099125  5.049563  5.049563     0.007313    0.124786   -0.000010  
      0.000000  1.683188  1.683188     0.007313    0.124786   -0.000010  
      1.683188  3.366375  1.683188     0.007313    0.124786   -0.000010  
      3.366375  5.049563  1.683188     0.007313    0.124786   -0.000010  
      5.049563  6.732750  1.683188     0.007313    0.124786   -0.000010  
      1.683188  1.683188  3.366375     0.007313    0.124786   -0.000010  
      3.366375  3.366375  3.366375     0.007313    0.124786   -0.000010  
      5.049563  5.049563  3.366375     0.007313    0.124786   -0.000010  
      6.732750  6.732750  3.366375     0.007313    0.124786   -0.000010  
      3.366375  1.683188  5.049563     0.007313    0.124786   -0.000010  
      5.049563  3.366375  5.049563     0.007313    0.124786   -0.000010  
      6.732750  5.049563  5.049563     0.007313    0.124786   -0.000010  
      8.415938  6.732750  5.049563     0.007313    0.124786   -0.000010  
      5.049563  1.683188  6.732750     0.007313    0.124786   -0.000010  
      6.732750  3.366375  6.732750     0.007313    0.124786   -0.000010  
      8.415938  5.049563  6.732750     0.007313    0.124786   -0.000010  
     10.099125  6.732750  6.732750     0.007313    0.124786   -0.000010  
      0.000000  3.366375  3.366375     0.007313    0.124786   -0.000010  
      1.683188  5.049563  3.366375     0.007313    0.124786   -0.000010  
      3.366375  6.732750  3.366375     0.007313    0.124786   -0.000010  
      5.049563  8.415938  3.366375     0.007313    0.124786   -0.000010  
      1.683188  3.366375  5.049563     0.007313    0.124786   -0.000010  
      3.366375  5.049563  5.049563     0.007313    0.124786   -0.000010  
      5.049563  6.732750  5.049563     0.007313    0.124786   -0.000010  
      6.732750  8.415938  5.049563     0.007313    0.124786   -0.000010  
      3.366375  3.366375  6.732750     0.007313    0.124786   -0.000010  
      5.049563  5.049563  6.732750     0.007313    0.124786   -0.000010  
      6.732750  6.732750  6.732750     0.007313    0.124786   -0.000010  
      8.415938  8.415938  6.732750     0.007313    0.124786   -0.000010  
      5.049563  3.366375  8.415938     0.007313    0.124786   -0.000010  
      6.732750  5.049563  8.415938     0.007313    0.124786   -0.000010  
      8.415938  6.732750  8.415938     0.007313    0.124786   -0.000010  
     10.099125  8.415938  8.415938     0.007313    0.124786   -0.000010  
      0.000000  5.049563  5.049563     0.007313    0.124786   -0.000010  
      1.683188  6.732750  5.049563     0.007313    0.124786   -0.000010  
      3.366375  8.415938  5.049563     0.007313    0.124786   -0.000010  
      5.049563 10.099125  5.049563     0.007313    0.124786   -0.000010  
      1.683188  5.049563  6.732750     0.007313    0.124786   -0.000010  
      3.366375  6.732750  6.732750     0.007313    0.124786   -0.000010  
      5.049563  8.415938  6.732750     0.007313    0.124786   -0.000010  
      6.732750 10.099125  6.732750     0.007313    0.124786   -0.000010  
      3.366375  5.049563  8.415938     0.007313    0.124786   -0.000010  
      5.049563  6.732750  8.415938     0.007313    0.124786   -0.000010  
      6.732750  8.415938  8.415938     0.007313    0.124786   -0.000010  
      8.415938 10.099125  8.415938     0.007313    0.124786   -0.000010  
      5.049563  5.049563 10.099125     0.007313    0.124786   -0.000010  
      6.732750  6.732750 10.099125     0.007313    0.124786   -0.000010  
      8.415938  8.415938 10.099125     0.007313    0.124786   -0.000010  
     10.099125 10.099125 10.099125     0.007313    0.124786   -0.000010  
 

 ELASTIC MODULI CONTR FROM IONIC RELAXATION (kBar)
 Direction    XX          YY          ZZ          XY          YZ          ZX
 --------------------------------------------------------------------------------
 XX          -0.0000     -0.0000      0.0000     -0.0000     -0.0000      0.0000
 YY          -0.0000     -0.0000     -0.0000      0.0000     -0.0000      0.0000
 ZZ          -0.0000     -0.0000     -0.0000      0.0000     -0.0000      0.0000
 XY          -0.0000      0.0000      0.0000      0.0000      0.0000     -0.0000
 YZ          -0.0000     -0.0000     -0.0000      0.0000      0.0000     -0.0000
 ZX           0.0000     -0.0000     -0.0000     -0.0000     -0.0000      0.0000
 --------------------------------------------------------------------------------



--------------------------------------------------------------------------------------------------------


  LATTYP: Found a face centered cubic cell.
 ALAT       =    13.4655000000
  
  Lattice vectors:
  
 A1 = (   0.0000000000,   6.7327500000,   6.7327500000)
 A2 = (   6.7327500000,   0.0000000000,   6.7327500000)
 A3 = (   6.7327500000,   6.7327500000,   0.0000000000)


Analysis of symmetry for initial positions (statically):
=====================================================================
 Subroutine PRICEL returns following result:
 
  LATTYP: Found a face centered cubic cell.
 ALAT       =     3.3663750000
  
  Lattice vectors:
  
 A1 = (   0.0000000000,   1.6831875000,   1.6831875000)
 A2 = (   1.6831875000,   0.0000000000,   1.6831875000)
 A3 = (   1.6831875000,   1.6831875000,   0.0000000000)
 
  64 primitive cells build up your supercell.
 

 Routine SETGRP: Setting up the symmetry group for a 
 face centered cubic supercell.


 Subroutine GETGRP returns: Found 48 space group operations
 (whereof 48 operations were pure point group operations)
 out of a pool of 48 trial point group operations.


The static configuration has the point symmetry O_h .


Analysis of symmetry for dynamics (positions and initial velocities):
=====================================================================
 Subroutine PRICEL returns following result:
 
  LATTYP: Found a face centered cubic cell.
 ALAT       =     3.3663750000
  
  Lattice vectors:
  
 A1 = (   0.0000000000,   1.6831875000,   1.6831875000)
 A2 = (   1.6831875000,   0.0000000000,   1.6831875000)
 A3 = (   1.6831875000,   1.6831875000,   0.0000000000)
 
  64 primitive cells build up your supercell.
 

 Routine SETGRP: Setting up the symmetry group for a 
 face centered cubic supercell.


 Subroutine GETGRP returns: Found 48 space group operations
 (whereof 48 operations were pure point group operations)
 out of a pool of 48 trial point group operations.


The dynamic configuration has the point symmetry O_h .


Analysis of structural, dynamic, and magnetic symmetry:
=====================================================================
 Subroutine PRICEL returns following result:
 
  LATTYP: Found a face centered cubic cell.
 ALAT       =     3.3663750000
  
  Lattice vectors:
  
 A1 = (   0.0000000000,   1.6831875000,   1.6831875000)
 A2 = (   1.6831875000,   0.0000000000,   1.6831875000)
 A3 = (   1.6831875000,   1.6831875000,   0.0000000000)
 
  64 primitive cells build up your supercell.
 

 Routine SETGRP: Setting up the symmetry group for a 
 face centered cubic supercell.


 Subroutine GETGRP returns: Found 48 space group operations
 (whereof 48 operations were pure point group operations)
 out of a pool of 48 trial point group operations.


The magnetic configuration has the point symmetry O_h .


 Subroutine INISYM returns: Found 48 space group operations
 (whereof 48 operations are pure point group operations),
 and found    64 'primitive' translations

 
 KPOINTS: Zr 15x15x15                             

Automatic generation of k-mesh.
Space group operators:
 irot       det(A)        alpha          n_x          n_y          n_z        tau_x        tau_y        tau_z
    1     1.000000     0.000000     1.000000     0.000000     0.000000     0.000000     0.000000     0.000000
    2    -1.000000     0.000000     1.000000     0.000000     0.000000     0.000000     0.000000     0.000000
    3     1.000000   120.000000    -0.577350    -0.577350    -0.577350     0.000000     0.000000     0.000000
    4    -1.000000   120.000000    -0.577350    -0.577350    -0.577350     0.000000     0.000000     0.000000
    5     1.000000   120.000000     0.577350     0.577350     0.577350     0.000000     0.000000     0.000000
    6    -1.000000   120.000000     0.577350     0.577350     0.577350     0.000000     0.000000     0.000000
    7     1.000000    90.000000     0.000000     0.000000    -1.000000     0.000000     0.000000     0.000000
    8    -1.000000    90.000000     0.000000     0.000000    -1.000000     0.000000     0.000000     0.000000
    9     1.000000   180.000000     0.000000     0.707107     0.707107     0.000000     0.000000     0.000000
   10    -1.000000   180.000000     0.000000     0.707107     0.707107     0.000000     0.000000     0.000000
   11     1.000000    90.000000     0.000000     1.000000     0.000000     0.000000     0.000000     0.000000
   12    -1.000000    90.000000     0.000000     1.000000     0.000000     0.000000     0.000000     0.000000
   13     1.000000   180.000000     0.000000     0.000000     1.000000     0.000000     0.000000     0.000000
   14    -1.000000   180.000000     0.000000     0.000000     1.000000     0.000000     0.000000     0.000000
   15     1.000000   120.000000    -0.577350     0.577350     0.577350     0.000000     0.000000     0.000000
   16    -1.000000   120.000000    -0.577350     0.577350     0.577350     0.000000     0.000000     0.000000
   17     1.000000   120.000000    -0.577350     0.577350    -0.577350     0.000000     0.000000     0.000000
   18    -1.000000   120.000000    -0.577350     0.577350    -0.577350     0.000000     0.000000     0.000000
   19     1.000000    90.000000     0.000000     0.000000     1.000000     0.000000     0.000000     0.000000
   20    -1.000000    90.000000     0.000000     0.000000     1.000000     0.000000     0.000000     0.000000
   21     1.000000    90.000000    -1.000000     0.000000     0.000000     0.000000     0.000000     0.000000
   22    -1.000000    90.000000    -1.000000     0.000000     0.000000     0.000000     0.000000     0.000000
   23     1.000000   180.000000     0.707107     0.000000     0.707107     0.000000     0.000000     0.000000
   24    -1.000000   180.000000     0.707107     0.000000     0.707107     0.000000     0.000000     0.000000
   25     1.000000   120.000000     0.577350    -0.577350     0.577350     0.000000     0.000000     0.000000
   26    -1.000000   120.000000     0.577350    -0.577350     0.577350     0.000000     0.000000     0.000000
   27     1.000000   120.000000    -0.577350    -0.577350     0.577350     0.000000     0.000000     0.000000
   28    -1.000000   120.000000    -0.577350    -0.577350     0.577350     0.000000     0.000000     0.000000
   29     1.000000   180.000000     1.000000     0.000000     0.000000     0.000000     0.000000     0.000000
   30    -1.000000   180.000000     1.000000     0.000000     0.000000     0.000000     0.000000     0.000000
   31     1.000000    90.000000     0.000000    -1.000000     0.000000     0.000000     0.000000     0.000000
   32    -1.000000    90.000000     0.000000    -1.000000     0.000000     0.000000     0.000000     0.000000
   33     1.000000   180.000000     0.707107     0.707107     0.000000     0.000000     0.000000     0.000000
   34    -1.000000   180.000000     0.707107     0.707107     0.000000     0.000000     0.000000     0.000000
   35     1.000000    90.000000     1.000000     0.000000     0.000000     0.000000     0.000000     0.000000
   36    -1.000000    90.000000     1.000000     0.000000     0.000000     0.000000     0.000000     0.000000
   37     1.000000   120.000000     0.577350    -0.577350    -0.577350     0.000000     0.000000     0.000000
   38    -1.000000   120.000000     0.577350    -0.577350    -0.577350     0.000000     0.000000     0.000000
   39     1.000000   180.000000     0.000000     1.000000     0.000000     0.000000     0.000000     0.000000
   40    -1.000000   180.000000     0.000000     1.000000     0.000000     0.000000     0.000000     0.000000
   41     1.000000   120.000000     0.577350     0.577350    -0.577350     0.000000     0.000000     0.000000
   42    -1.000000   120.000000     0.577350     0.577350    -0.577350     0.000000     0.000000     0.000000
   43     1.000000   180.000000     0.000000    -0.707107     0.707107     0.000000     0.000000     0.000000
   44    -1.000000   180.000000     0.000000    -0.707107     0.707107     0.000000     0.000000     0.000000
   45     1.000000   180.000000     0.707107    -0.707107     0.000000     0.000000     0.000000     0.000000
   46    -1.000000   180.000000     0.707107    -0.707107     0.000000     0.000000     0.000000     0.000000
   47     1.000000   180.000000     0.707107     0.000000    -0.707107     0.000000     0.000000     0.000000
   48    -1.000000   180.000000     0.707107     0.000000    -0.707107     0.000000     0.000000     0.000000
 
 Subroutine IBZKPT returns following result:
 ===========================================
 
 Found     10 irreducible k-points:
 
 Following reciprocal coordinates:
            Coordinates               Weight
  0.000000  0.000000  0.000000      1.000000
  0.200000  0.000000  0.000000      8.000000
  0.400000  0.000000  0.000000      8.000000
  0.200000  0.200000  0.000000      6.000000
  0.400000  0.200000  0.000000     24.000000
 -0.400000  0.200000  0.000000     24.000000
 -0.200000  0.200000  0.000000     12.000000
  0.400000  0.400000  0.000000      6.000000
 -0.400000  0.400000  0.000000     12.000000
 -0.400000  0.400000  0.200000     24.000000
 
 Following cartesian coordinates:
            Coordinates               Weight
  0.000000  0.000000  0.000000      1.000000
 -0.014853  0.014853  0.014853      8.000000
 -0.029706  0.029706  0.029706      8.000000
  0.000000  0.000000  0.029706      6.000000
 -0.014853  0.014853  0.044558     24.000000
  0.044558 -0.044558 -0.014853     24.000000
  0.029706 -0.029706  0.000000     12.000000
  0.000000  0.000000  0.059411      6.000000
  0.059411 -0.059411  0.000000     12.000000
  0.074264 -0.044558 -0.014853     24.000000
 
 writing wavefunctions
     LOOP+:  cpu time 7755.0571: real time 7752.3167
    4ORBIT:  cpu time    0.0000: real time    0.0000

 total amount of memory used by VASP on root node   713987. kBytes
========================================================================

   base      :      30000. kBytes
   nonlr-proj:      47454. kBytes
   fftplans  :      15609. kBytes
   grid      :      48902. kBytes
   one-center:       1990. kBytes
   wavefun   :     570032. kBytes
 
  
  
 General timing and accounting informations for this job:
 ========================================================
  
                  Total CPU time used (sec):    19561.729
                            User time (sec):    19522.268
                          System time (sec):       39.461
                         Elapsed time (sec):    19555.311
  
                   Maximum memory used (kb):     2187184.
                   Average memory used (kb):           0.
  
                          Minor page faults:       231806
                          Major page faults:            0
                 Voluntary context switches:         1317
