<?xml version="1.0" encoding="ISO-8859-1"?>
<modeling>
 <generator>
  <i name="program" type="string">vasp </i>
  <i name="version" type="string">5.4.1  </i>
  <i name="subversion" type="string">05Feb16 (build Oct 12 2016 17:31:35) complex                          parallel </i>
  <i name="platform" type="string">IFC91_ompi </i>
  <i name="date" type="string">2020 09 07 </i>
  <i name="time" type="string">22:42:39 </i>
 </generator>
 <incar>
  <i type="string" name="SYSTEM"> phonon of Zr bcc - omiga</i>
  <i type="string" name="PREC">a</i>
  <i type="int" name="ISPIN">     2</i>
  <i type="int" name="IBRION">     6</i>
  <i name="EDIFF">      0.00000100</i>
  <i type="int" name="NSW">     1</i>
  <v name="MAGMOM">      1.00000000      1.00000000      1.00000000      1.00000000      1.00000000      1.00000000      1.00000000      1.00000000      1.00000000      1.00000000      1.00000000      1.00000000      1.00000000      1.00000000      1.00000000      1.00000000      1.00000000      1.00000000      1.00000000      1.00000000
      1.00000000      1.00000000      1.00000000      1.00000000      1.00000000      1.00000000      1.00000000      1.00000000      1.00000000      1.00000000      1.00000000      1.00000000      1.00000000      1.00000000      1.00000000      1.00000000      1.00000000      1.00000000      1.00000000      1.00000000
      1.00000000      1.00000000      1.00000000      1.00000000      1.00000000      1.00000000      1.00000000      1.00000000      1.00000000      1.00000000      1.00000000      1.00000000      1.00000000      1.00000000      1.00000000      1.00000000      1.00000000      1.00000000      1.00000000      1.00000000
      1.00000000      1.00000000      1.00000000      1.00000000</v>
  <i type="string" name="LREAL">Auto</i>
  <i type="int" name="ISMEAR">     1</i>
  <i type="int" name="NWRITE">     0</i>
  <v type="int" name="KPOINT_BSE">    -1     0     0     0</v>
 </incar>
 <kpoints>
  <generation param="Gamma">
   <v type="int" name="divisions">       5        5        5 </v>
   <v name="usershift">      0.00000000       0.00000000       0.00000000 </v>
   <v name="genvec1">      0.20000000       0.00000000       0.00000000 </v>
   <v name="genvec2">      0.00000000       0.20000000       0.00000000 </v>
   <v name="genvec3">      0.00000000       0.00000000       0.20000000 </v>
   <v name="shift">      0.00000000       0.00000000       0.00000000 </v>
  </generation>
  <varray name="kpointlist" >
   <v>       0.00000000       0.00000000       0.00000000 </v>
   <v>       0.20000000       0.00000000       0.00000000 </v>
   <v>       0.40000000       0.00000000       0.00000000 </v>
   <v>       0.20000000       0.20000000       0.00000000 </v>
   <v>       0.40000000       0.20000000       0.00000000 </v>
   <v>      -0.40000000       0.20000000       0.00000000 </v>
   <v>      -0.20000000       0.20000000       0.00000000 </v>
   <v>       0.40000000       0.40000000       0.00000000 </v>
   <v>      -0.40000000       0.40000000       0.00000000 </v>
   <v>      -0.40000000       0.40000000       0.20000000 </v>
  </varray>
  <varray name="weights" >
   <v>       0.00800000 </v>
   <v>       0.06400000 </v>
   <v>       0.06400000 </v>
   <v>       0.04800000 </v>
   <v>       0.19200000 </v>
   <v>       0.19200000 </v>
   <v>       0.09600000 </v>
   <v>       0.04800000 </v>
   <v>       0.09600000 </v>
   <v>       0.19200000 </v>
  </varray>
 </kpoints>
 <parameters>
  <separator name="general" >
   <i type="string" name="SYSTEM">phonon of Zr bcc - omiga</i>
   <i type="logical" name="LCOMPAT"> F  </i>
  </separator>
  <separator name="electronic" >
   <i type="string" name="PREC">a</i>
   <i name="ENMAX">    367.94500000</i>
   <i name="ENAUG">    703.44300000</i>
   <i name="EDIFF">      0.00000100</i>
   <i type="int" name="IALGO">    38</i>
   <i type="int" name="IWAVPR">    11</i>
   <i type="int" name="NBANDS">   648</i>
   <i name="NELECT">   1024.00000000</i>
   <i type="int" name="TURBO">     0</i>
   <i type="int" name="IRESTART">     0</i>
   <i type="int" name="NREBOOT">     0</i>
   <i type="int" name="NMIN">     0</i>
   <i name="EREF">      0.00000000</i>
   <separator name="electronic smearing" >
    <i type="int" name="ISMEAR">     1</i>
    <i name="SIGMA">      0.20000000</i>
    <i name="KSPACING">      0.50000000</i>
    <i type="logical" name="KGAMMA"> T  </i>
   </separator>
   <separator name="electronic projectors" >
    <i type="logical" name="LREAL"> T  </i>
    <v name="ROPT">     -0.00025000</v>
    <i type="int" name="LMAXPAW">  -100</i>
    <i type="int" name="LMAXMIX">     2</i>
    <i type="logical" name="NLSPLINE"> F  </i>
   </separator>
   <separator name="electronic startup" >
    <i type="int" name="ISTART">     0</i>
    <i type="int" name="ICHARG">     2</i>
    <i type="int" name="INIWAV">     1</i>
   </separator>
   <separator name="electronic spin" >
    <i type="int" name="ISPIN">     2</i>
    <i type="logical" name="LNONCOLLINEAR"> F  </i>
    <v name="MAGMOM">      1.00000000      1.00000000      1.00000000      1.00000000      1.00000000      1.00000000      1.00000000      1.00000000      1.00000000      1.00000000      1.00000000      1.00000000      1.00000000      1.00000000      1.00000000      1.00000000      1.00000000      1.00000000      1.00000000      1.00000000
      1.00000000      1.00000000      1.00000000      1.00000000      1.00000000      1.00000000      1.00000000      1.00000000      1.00000000      1.00000000      1.00000000      1.00000000      1.00000000      1.00000000      1.00000000      1.00000000      1.00000000      1.00000000      1.00000000      1.00000000
      1.00000000      1.00000000      1.00000000      1.00000000      1.00000000      1.00000000      1.00000000      1.00000000      1.00000000      1.00000000      1.00000000      1.00000000      1.00000000      1.00000000      1.00000000      1.00000000      1.00000000      1.00000000      1.00000000      1.00000000
      1.00000000      1.00000000      1.00000000      1.00000000</v>
    <i name="NUPDOWN">     -1.00000000</i>
    <i type="logical" name="LSORBIT"> F  </i>
    <v name="SAXIS">      0.00000000      0.00000000      1.00000000</v>
    <i type="logical" name="LSPIRAL"> F  </i>
    <v name="QSPIRAL">      0.00000000      0.00000000      0.00000000</v>
    <i type="logical" name="LZEROZ"> F  </i>
   </separator>
   <separator name="electronic exchange-correlation" >
    <i type="logical" name="LASPH"> F  </i>
    <i type="logical" name="LMETAGGA"> F  </i>
   </separator>
   <separator name="electronic convergence" >
    <i type="int" name="NELM">    60</i>
    <i type="int" name="NELMDL">     0</i>
    <i type="int" name="NELMIN">     2</i>
    <i name="ENINI">    367.94500000</i>
    <separator name="electronic convergence detail" >
     <i type="logical" name="LDIAG"> T  </i>
     <i type="logical" name="LSUBROT"> F  </i>
     <i name="WEIMIN">      0.00100000</i>
     <i name="EBREAK">      0.00000000</i>
     <i name="DEPER">      0.30000000</i>
     <i type="int" name="NRMM">     4</i>
     <i name="TIME">      0.40000000</i>
    </separator>
   </separator>
   <separator name="electronic mixer" >
    <i name="AMIX">      0.40000000</i>
    <i name="BMIX">      1.00000000</i>
    <i name="AMIN">      0.10000000</i>
    <i name="AMIX_MAG">      1.60000000</i>
    <i name="BMIX_MAG">      1.00000000</i>
    <separator name="electronic mixer details" >
     <i type="int" name="IMIX">     4</i>
     <i type="logical" name="MIXFIRST"> F  </i>
     <i type="int" name="MAXMIX">   -45</i>
     <i name="WC">    100.00000000</i>
     <i type="int" name="INIMIX">     1</i>
     <i type="int" name="MIXPRE">     1</i>
     <i type="int" name="MREMOVE">     5</i>
    </separator>
   </separator>
   <separator name="electronic dipolcorrection" >
    <i type="logical" name="LDIPOL"> F  </i>
    <i type="logical" name="LMONO"> F  </i>
    <i type="int" name="IDIPOL">     0</i>
    <i name="EPSILON">      1.00000000</i>
    <v name="DIPOL">   -100.00000000   -100.00000000   -100.00000000</v>
    <i name="EFIELD">      0.00000000</i>
   </separator>
  </separator>
  <separator name="grids" >
   <i type="int" name="NGX">    60</i>
   <i type="int" name="NGY">    60</i>
   <i type="int" name="NGZ">    60</i>
   <i type="int" name="NGXF">   120</i>
   <i type="int" name="NGYF">   120</i>
   <i type="int" name="NGZF">   120</i>
   <i type="logical" name="ADDGRID"> F  </i>
  </separator>
  <separator name="ionic" >
   <i type="int" name="NSW">   805</i>
   <i type="int" name="IBRION">     6</i>
   <i type="int" name="ISIF">     2</i>
   <i name="PSTRESS">      0.00000000</i>
   <i name="EDIFFG">      0.00001000</i>
   <i type="int" name="NFREE">     2</i>
   <i name="POTIM">      0.50000000</i>
   <i name="SMASS">     -3.00000000</i>
   <i name="SCALEE">      1.00000000</i>
  </separator>
  <separator name="ionic md" >
   <i name="TEBEG">      0.00010000</i>
   <i name="TEEND">      0.00010000</i>
   <i type="int" name="NBLOCK">     1</i>
   <i type="int" name="KBLOCK">     1</i>
   <i type="int" name="NPACO">   256</i>
   <i name="APACO">     16.00000000</i>
  </separator>
  <separator name="symmetry" >
   <i type="int" name="ISYM">     2</i>
   <i name="SYMPREC">      0.00001000</i>
  </separator>
  <separator name="dos" >
   <i type="logical" name="LORBIT"> F  </i>
   <v name="RWIGS">     -1.00000000</v>
   <i type="int" name="NEDOS">   301</i>
   <i name="EMIN">     10.00000000</i>
   <i name="EMAX">    -10.00000000</i>
   <i name="EFERMI">      0.00000000</i>
  </separator>
  <separator name="writing" >
   <i type="int" name="NWRITE">     0</i>
   <i type="logical" name="LWAVE"> T  </i>
   <i type="logical" name="LCHARG"> T  </i>
   <i type="logical" name="LPARD"> F  </i>
   <i type="logical" name="LVTOT"> F  </i>
   <i type="logical" name="LVHAR"> F  </i>
   <i type="logical" name="LELF"> F  </i>
   <i type="logical" name="LOPTICS"> F  </i>
   <v name="STM">      0.00000000      0.00000000      0.00000000      0.00000000      0.00000000      0.00000000      0.00000000</v>
  </separator>
  <separator name="performance" >
   <i type="int" name="NPAR">     4</i>
   <i type="int" name="NSIM">     4</i>
   <i type="int" name="NBLK">    -1</i>
   <i type="logical" name="LPLANE"> T  </i>
   <i type="logical" name="LSCALAPACK"> T  </i>
   <i type="logical" name="LSCAAWARE"> F  </i>
   <i type="logical" name="LSCALU"> F  </i>
   <i type="logical" name="LASYNC"> F  </i>
   <i type="logical" name="LORBITALREAL"> F  </i>
  </separator>
  <separator name="miscellaneous" >
   <i type="int" name="IDIOT">     3</i>
   <i type="logical" name="LMUSIC"> F  </i>
   <v name="POMASS">     58.69000000</v>
   <v name="DARWINR">      0.00000000</v>
   <v name="DARWINV">      1.00000000</v>
   <i type="logical" name="LCORR"> T  </i>
  </separator>
  <i type="logical" name="GGA_COMPAT"> T  </i>
  <i type="logical" name="LBERRY"> F  </i>
  <i type="int" name="ICORELEVEL">     0</i>
  <i type="logical" name="LDAU"> F  </i>
  <i type="int" name="I_CONSTRAINED_M">     0</i>
  <separator name="electronic exchange-correlation" >
   <i type="string" name="GGA">--</i>
   <i type="int" name="VOSKOWN">     0</i>
   <i type="logical" name="LHFCALC"> F  </i>
   <i type="string" name="PRECFOCK"></i>
   <i type="logical" name="LSYMGRAD"> F  </i>
   <i type="logical" name="LHFONE"> F  </i>
   <i type="logical" name="LRHFCALC"> F  </i>
   <i type="logical" name="LTHOMAS"> F  </i>
   <i type="logical" name="LMODELHF"> F  </i>
   <i name="ENCUT4O">     -1.00000000</i>
   <i type="int" name="EXXOEP">     0</i>
   <i type="int" name="FOURORBIT">     0</i>
   <i name="AEXX">      0.00000000</i>
   <i name="HFALPHA">      0.00000000</i>
   <i name="MCALPHA">      0.00000000</i>
   <i name="ALDAX">      1.00000000</i>
   <i name="AGGAX">      1.00000000</i>
   <i name="ALDAC">      1.00000000</i>
   <i name="AGGAC">      1.00000000</i>
   <i type="int" name="NKREDX">     1</i>
   <i type="int" name="NKREDY">     1</i>
   <i type="int" name="NKREDZ">     1</i>
   <i type="logical" name="SHIFTRED"> F  </i>
   <i type="logical" name="ODDONLY"> F  </i>
   <i type="logical" name="EVENONLY"> F  </i>
   <i type="int" name="LMAXFOCK">     0</i>
   <i type="int" name="NMAXFOCKAE">     0</i>
   <i type="logical" name="LFOCKAEDFT"> F  </i>
   <i name="HFSCREEN">      0.00000000</i>
   <i name="HFSCREENC">      0.00000000</i>
   <i type="int" name="NBANDSGWLOW">     0</i>
  </separator>
  <separator name="vdW DFT" >
   <i type="logical" name="LUSE_VDW"> F  </i>
   <i name="Zab_VDW">     -0.84910000</i>
   <i name="PARAM1">      0.12340000</i>
   <i name="PARAM2">      1.00000000</i>
   <i name="PARAM3">      0.00000000</i>
  </separator>
  <separator name="model GW" >
   <i type="int" name="MODEL_GW">     0</i>
   <i name="MODEL_EPS0">      5.72240693</i>
   <i name="MODEL_ALPHA">      1.00000000</i>
  </separator>
  <separator name="linear response parameters" >
   <i type="logical" name="LEPSILON"> F  </i>
   <i type="logical" name="LRPA"> F  </i>
   <i type="logical" name="LNABLA"> F  </i>
   <i type="logical" name="LVEL"> F  </i>
   <i type="int" name="KINTER">     0</i>
   <i name="CSHIFT">      0.10000000</i>
   <i name="OMEGAMAX">     -1.00000000</i>
   <i name="DEG_THRESHOLD">      0.00200000</i>
  </separator>
  <separator name="orbital magnetization" >
   <i type="logical" name="NUCIND"> F  </i>
   <v name="MAGPOS">      0.00000000      0.00000000      0.00000000</v>
   <i type="logical" name="LNICSALL"> T  </i>
   <i type="logical" name="ORBITALMAG"> F  </i>
   <i type="logical" name="LMAGBLOCH"> F  </i>
   <i type="logical" name="LCHIMAG"> F  </i>
   <i type="logical" name="LGAUGE"> T  </i>
   <i type="int" name="MAGATOM">     0</i>
   <v name="MAGDIPOL">      0.00000000      0.00000000      0.00000000</v>
   <v name="AVECCONST">      0.00000000      0.00000000      0.00000000</v>
  </separator>
  <separator name="response functions" >
   <i type="logical" name="LADDER"> F  </i>
   <i type="logical" name="LFXC"> F  </i>
   <i type="logical" name="LHARTREE"> T  </i>
   <i type="int" name="IBSE">     0</i>
   <v type="int" name="KPOINT">    -1     0     0     0</v>
   <i type="logical" name="LTCTE"> F  </i>
   <i type="logical" name="LTETE"> F  </i>
   <i type="logical" name="LTRIPLET"> F  </i>
   <i type="logical" name="LFXCEPS"> F  </i>
   <i type="logical" name="LFXHEG"> F  </i>
   <i type="int" name="NATURALO">     0</i>
   <i type="logical" name="L2ORDER"> F  </i>
   <i type="logical" name="LUSEW"> F  </i>
   <i name="ENCUTGW">     -2.00000000</i>
   <i name="ENCUTGWSOFT">     -2.00000000</i>
   <i name="ENCUTLF">     -1.00000000</i>
   <i type="int" name="LMAXMP2">    -1</i>
   <i name="SCISSOR">      0.00000000</i>
   <i type="int" name="NOMEGA">     0</i>
   <i type="int" name="NOMEGAR">     0</i>
   <i type="int" name="NBANDSGW">    -1</i>
   <i type="int" name="NBANDSO">    -1</i>
   <i type="int" name="NBANDSV">    -1</i>
   <i type="int" name="NELM">     1</i>
   <i type="int" name="NELMHF">     1</i>
   <i type="int" name="DIM">     3</i>
   <i type="int" name="ANTIRES">     0</i>
   <i name="OMEGAMAX">    -30.00000000</i>
   <i name="OMEGAMIN">    -30.00000000</i>
   <i name="OMEGATL">   -200.00000000</i>
   <i type="int" name="OMEGAGRID">     0</i>
   <i name="CSHIFT">     -0.10000000</i>
   <i type="logical" name="SELFENERGY"> F  </i>
   <i type="logical" name="LSPECTRAL"> F  </i>
   <i type="logical" name="LSPECTRALGW"> F  </i>
   <i type="logical" name="LSINGLES"> F  </i>
   <i type="logical" name="LFERMIGW"> F  </i>
   <i type="logical" name="ODDONLYGW"> F  </i>
   <i type="logical" name="EVENONLYGW"> F  </i>
   <i type="int" name="NKREDLFX">     1</i>
   <i type="int" name="NKREDLFY">     1</i>
   <i type="int" name="NKREDLFZ">     1</i>
   <i type="int" name="MAXMEM">  1800</i>
   <i type="int" name="TELESCOPE">     0</i>
   <i type="int" name="TAUPAR">     1</i>
   <i type="int" name="OMEGAPAR">    -1</i>
   <i name="LAMBDA">      1.00000000</i>
  </separator>
  <separator name="External order field" >
   <i name="OFIELD_KAPPA">      0.00000000</i>
   <v name="OFIELD_K">      0.00000000      0.00000000      0.00000000</v>
   <i name="OFIELD_Q6_NEAR">      0.00000000</i>
   <i name="OFIELD_Q6_FAR">      0.00000000</i>
   <i name="OFIELD_A">      0.00000000</i>
  </separator>
 </parameters>
 <atominfo>
  <atoms>      64 </atoms>
  <types>       1 </types>
  <array name="atoms" >
   <dimension dim="1">ion</dimension>
   <field type="string">element</field>
   <field type="int">atomtype</field>
   <set>
    <rc><c>Ni</c><c>   1</c></rc>
    <rc><c>Ni</c><c>   1</c></rc>
    <rc><c>Ni</c><c>   1</c></rc>
    <rc><c>Ni</c><c>   1</c></rc>
    <rc><c>Ni</c><c>   1</c></rc>
    <rc><c>Ni</c><c>   1</c></rc>
    <rc><c>Ni</c><c>   1</c></rc>
    <rc><c>Ni</c><c>   1</c></rc>
    <rc><c>Ni</c><c>   1</c></rc>
    <rc><c>Ni</c><c>   1</c></rc>
    <rc><c>Ni</c><c>   1</c></rc>
    <rc><c>Ni</c><c>   1</c></rc>
    <rc><c>Ni</c><c>   1</c></rc>
    <rc><c>Ni</c><c>   1</c></rc>
    <rc><c>Ni</c><c>   1</c></rc>
    <rc><c>Ni</c><c>   1</c></rc>
    <rc><c>Ni</c><c>   1</c></rc>
    <rc><c>Ni</c><c>   1</c></rc>
    <rc><c>Ni</c><c>   1</c></rc>
    <rc><c>Ni</c><c>   1</c></rc>
    <rc><c>Ni</c><c>   1</c></rc>
    <rc><c>Ni</c><c>   1</c></rc>
    <rc><c>Ni</c><c>   1</c></rc>
    <rc><c>Ni</c><c>   1</c></rc>
    <rc><c>Ni</c><c>   1</c></rc>
    <rc><c>Ni</c><c>   1</c></rc>
    <rc><c>Ni</c><c>   1</c></rc>
    <rc><c>Ni</c><c>   1</c></rc>
    <rc><c>Ni</c><c>   1</c></rc>
    <rc><c>Ni</c><c>   1</c></rc>
    <rc><c>Ni</c><c>   1</c></rc>
    <rc><c>Ni</c><c>   1</c></rc>
    <rc><c>Ni</c><c>   1</c></rc>
    <rc><c>Ni</c><c>   1</c></rc>
    <rc><c>Ni</c><c>   1</c></rc>
    <rc><c>Ni</c><c>   1</c></rc>
    <rc><c>Ni</c><c>   1</c></rc>
    <rc><c>Ni</c><c>   1</c></rc>
    <rc><c>Ni</c><c>   1</c></rc>
    <rc><c>Ni</c><c>   1</c></rc>
    <rc><c>Ni</c><c>   1</c></rc>
    <rc><c>Ni</c><c>   1</c></rc>
    <rc><c>Ni</c><c>   1</c></rc>
    <rc><c>Ni</c><c>   1</c></rc>
    <rc><c>Ni</c><c>   1</c></rc>
    <rc><c>Ni</c><c>   1</c></rc>
    <rc><c>Ni</c><c>   1</c></rc>
    <rc><c>Ni</c><c>   1</c></rc>
    <rc><c>Ni</c><c>   1</c></rc>
    <rc><c>Ni</c><c>   1</c></rc>
    <rc><c>Ni</c><c>   1</c></rc>
    <rc><c>Ni</c><c>   1</c></rc>
    <rc><c>Ni</c><c>   1</c></rc>
    <rc><c>Ni</c><c>   1</c></rc>
    <rc><c>Ni</c><c>   1</c></rc>
    <rc><c>Ni</c><c>   1</c></rc>
    <rc><c>Ni</c><c>   1</c></rc>
    <rc><c>Ni</c><c>   1</c></rc>
    <rc><c>Ni</c><c>   1</c></rc>
    <rc><c>Ni</c><c>   1</c></rc>
    <rc><c>Ni</c><c>   1</c></rc>
    <rc><c>Ni</c><c>   1</c></rc>
    <rc><c>Ni</c><c>   1</c></rc>
    <rc><c>Ni</c><c>   1</c></rc>
   </set>
  </array>
  <array name="atomtypes" >
   <dimension dim="1">type</dimension>
   <field type="int">atomspertype</field>
   <field type="string">element</field>
   <field>mass</field>
   <field>valence</field>
   <field type="string">pseudopotential</field>
   <set>
    <rc><c>  64</c><c>Ni</c><c>     58.69000000</c><c>     16.00000000</c><c> PAW_PBE Ni_pv 06Sep2000                </c></rc>
   </set>
  </array>
 </atominfo>
 <structure name="initialpos" >
  <crystal>
   <varray name="basis" >
    <v>       0.00000000       6.73275000       6.73275000 </v>
    <v>       6.73275000       0.00000000       6.73275000 </v>
    <v>       6.73275000       6.73275000       0.00000000 </v>
   </varray>
   <i name="volume">    610.39007227 </i>
   <varray name="rec_basis" >
    <v>      -0.07426386       0.07426386       0.07426386 </v>
    <v>       0.07426386      -0.07426386       0.07426386 </v>
    <v>       0.07426386       0.07426386      -0.07426386 </v>
   </varray>
  </crystal>
  <varray name="positions" >
   <v>       0.00000000       0.00000000       0.00000000 </v>
   <v>       0.00000000       0.00000000       0.25000000 </v>
   <v>       0.00000000       0.00000000       0.50000000 </v>
   <v>       0.00000000       0.00000000       0.75000000 </v>
   <v>       0.00000000       0.25000000       0.00000000 </v>
   <v>       0.00000000       0.25000000       0.25000000 </v>
   <v>       0.00000000       0.25000000       0.50000000 </v>
   <v>       0.00000000       0.25000000       0.75000000 </v>
   <v>       0.00000000       0.50000000       0.00000000 </v>
   <v>       0.00000000       0.50000000       0.25000000 </v>
   <v>       0.00000000       0.50000000       0.50000000 </v>
   <v>       0.00000000       0.50000000       0.75000000 </v>
   <v>       0.00000000       0.75000000       0.00000000 </v>
   <v>       0.00000000       0.75000000       0.25000000 </v>
   <v>       0.00000000       0.75000000       0.50000000 </v>
   <v>       0.00000000       0.75000000       0.75000000 </v>
   <v>       0.25000000       0.00000000       0.00000000 </v>
   <v>       0.25000000       0.00000000       0.25000000 </v>
   <v>       0.25000000       0.00000000       0.50000000 </v>
   <v>       0.25000000       0.00000000       0.75000000 </v>
   <v>       0.25000000       0.25000000       0.00000000 </v>
   <v>       0.25000000       0.25000000       0.25000000 </v>
   <v>       0.25000000       0.25000000       0.50000000 </v>
   <v>       0.25000000       0.25000000       0.75000000 </v>
   <v>       0.25000000       0.50000000       0.00000000 </v>
   <v>       0.25000000       0.50000000       0.25000000 </v>
   <v>       0.25000000       0.50000000       0.50000000 </v>
   <v>       0.25000000       0.50000000       0.75000000 </v>
   <v>       0.25000000       0.75000000       0.00000000 </v>
   <v>       0.25000000       0.75000000       0.25000000 </v>
   <v>       0.25000000       0.75000000       0.50000000 </v>
   <v>       0.25000000       0.75000000       0.75000000 </v>
   <v>       0.50000000       0.00000000       0.00000000 </v>
   <v>       0.50000000       0.00000000       0.25000000 </v>
   <v>       0.50000000       0.00000000       0.50000000 </v>
   <v>       0.50000000       0.00000000       0.75000000 </v>
   <v>       0.50000000       0.25000000       0.00000000 </v>
   <v>       0.50000000       0.25000000       0.25000000 </v>
   <v>       0.50000000       0.25000000       0.50000000 </v>
   <v>       0.50000000       0.25000000       0.75000000 </v>
   <v>       0.50000000       0.50000000       0.00000000 </v>
   <v>       0.50000000       0.50000000       0.25000000 </v>
   <v>       0.50000000       0.50000000       0.50000000 </v>
   <v>       0.50000000       0.50000000       0.75000000 </v>
   <v>       0.50000000       0.75000000       0.00000000 </v>
   <v>       0.50000000       0.75000000       0.25000000 </v>
   <v>       0.50000000       0.75000000       0.50000000 </v>
   <v>       0.50000000       0.75000000       0.75000000 </v>
   <v>       0.75000000       0.00000000       0.00000000 </v>
   <v>       0.75000000       0.00000000       0.25000000 </v>
   <v>       0.75000000       0.00000000       0.50000000 </v>
   <v>       0.75000000       0.00000000       0.75000000 </v>
   <v>       0.75000000       0.25000000       0.00000000 </v>
   <v>       0.75000000       0.25000000       0.25000000 </v>
   <v>       0.75000000       0.25000000       0.50000000 </v>
   <v>       0.75000000       0.25000000       0.75000000 </v>
   <v>       0.75000000       0.50000000       0.00000000 </v>
   <v>       0.75000000       0.50000000       0.25000000 </v>
   <v>       0.75000000       0.50000000       0.50000000 </v>
   <v>       0.75000000       0.50000000       0.75000000 </v>
   <v>       0.75000000       0.75000000       0.00000000 </v>
   <v>       0.75000000       0.75000000       0.25000000 </v>
   <v>       0.75000000       0.75000000       0.50000000 </v>
   <v>       0.75000000       0.75000000       0.75000000 </v>
  </varray>
 </structure>
 <calculation>
  <scstep>
   <time name="dav">  285.90  285.67</time>
   <time name="total">  286.51  286.27</time>
   <energy>
    <i name="alphaZ">  11304.57052840 </i>
    <i name="ewald">-160660.78111346 </i>
    <i name="hartreedc"> -57619.62050546 </i>
    <i name="XCdc">   5752.46845392 </i>
    <i name="pawpsdc"> 172361.15642774 </i>
    <i name="pawaedc">-181272.45834873 </i>
    <i name="eentropy">     -0.00468524 </i>
    <i name="bandstr">    477.99487019 </i>
    <i name="atom"> 224013.29143063 </i>
    <i name="e_fr_energy">  14356.61705801 </i>
    <i name="e_wo_entrp">  14356.62174325 </i>
    <i name="e_0_energy">  14356.61861976 </i>
   </energy>
  </scstep>
  <scstep>
   <time name="dav">  257.52  257.31</time>
   <time name="total">  257.53  257.32</time>
   <energy>
    <i name="e_fr_energy">    944.16655282 </i>
    <i name="e_wo_entrp">    944.17082699 </i>
    <i name="e_0_energy">    944.16797754 </i>
   </energy>
  </scstep>
  <scstep>
   <time name="dav">  263.16  262.94</time>
   <time name="total">  263.17  262.95</time>
   <energy>
    <i name="e_fr_energy">   -353.97184437 </i>
    <i name="e_wo_entrp">   -353.99338805 </i>
    <i name="e_0_energy">   -353.97902560 </i>
   </energy>
  </scstep>
  <scstep>
   <time name="dav">  271.59  271.36</time>
   <time name="total">  271.60  271.38</time>
   <energy>
    <i name="e_fr_energy">   -419.12544356 </i>
    <i name="e_wo_entrp">   -419.11232585 </i>
    <i name="e_0_energy">   -419.12107099 </i>
   </energy>
  </scstep>
  <scstep>
   <time name="dav">  270.74  270.52</time>
   <time name="total">  280.34  280.11</time>
   <energy>
    <i name="e_fr_energy">   -420.07119500 </i>
    <i name="e_wo_entrp">   -420.05788817 </i>
    <i name="e_0_energy">   -420.06675939 </i>
   </energy>
  </scstep>
  <scstep>
   <time name="dav">  266.49  266.27</time>
   <time name="total">  277.03  276.80</time>
   <energy>
    <i name="e_fr_energy">   -376.44222900 </i>
    <i name="e_wo_entrp">   -376.23992820 </i>
    <i name="e_0_energy">   -376.37479540 </i>
   </energy>
  </scstep>
  <scstep>
   <time name="dav">  265.82  265.61</time>
   <time name="total">  276.39  276.16</time>
   <energy>
    <i name="e_fr_energy">   -359.38322906 </i>
    <i name="e_wo_entrp">   -359.32151114 </i>
    <i name="e_0_energy">   -359.36265642 </i>
   </energy>
  </scstep>
  <scstep>
   <time name="dav">  270.87  270.65</time>
   <time name="total">  281.24  281.01</time>
   <energy>
    <i name="e_fr_energy">   -359.26133822 </i>
    <i name="e_wo_entrp">   -359.19172665 </i>
    <i name="e_0_energy">   -359.23813436 </i>
   </energy>
  </scstep>
  <scstep>
   <time name="dav">  270.21  269.99</time>
   <time name="total">  280.64  280.41</time>
   <energy>
    <i name="e_fr_energy">   -359.12739407 </i>
    <i name="e_wo_entrp">   -359.05202223 </i>
    <i name="e_0_energy">   -359.10227012 </i>
   </energy>
  </scstep>
  <scstep>
   <time name="dav">  277.76  277.53</time>
   <time name="total">  288.15  287.91</time>
   <energy>
    <i name="e_fr_energy">   -359.13125115 </i>
    <i name="e_wo_entrp">   -359.05621529 </i>
    <i name="e_0_energy">   -359.10623920 </i>
   </energy>
  </scstep>
  <scstep>
   <time name="dav">  271.13  270.91</time>
   <time name="total">  281.27  281.04</time>
   <energy>
    <i name="e_fr_energy">   -359.13366453 </i>
    <i name="e_wo_entrp">   -359.05855772 </i>
    <i name="e_0_energy">   -359.10862893 </i>
   </energy>
  </scstep>
  <scstep>
   <time name="dav">  261.67  261.46</time>
   <time name="total">  271.79  272.15</time>
   <energy>
    <i name="e_fr_energy">   -359.13368980 </i>
    <i name="e_wo_entrp">   -359.05809822 </i>
    <i name="e_0_energy">   -359.10849260 </i>
   </energy>
  </scstep>
  <scstep>
   <time name="dav">  238.37  238.18</time>
   <time name="total">  248.47  248.27</time>
   <energy>
    <i name="e_fr_energy">   -359.13369209 </i>
    <i name="e_wo_entrp">   -359.05795131 </i>
    <i name="e_0_energy">   -359.10844516 </i>
   </energy>
  </scstep>
  <scstep>
   <time name="dav">  240.19  240.00</time>
   <time name="total">  250.36  250.15</time>
   <energy>
    <i name="e_fr_energy">   -359.13366482 </i>
    <i name="e_wo_entrp">   -359.05799209 </i>
    <i name="e_0_energy">   -359.10844058 </i>
   </energy>
  </scstep>
  <scstep>
   <time name="dav">  160.28  160.15</time>
   <time name="total">  170.42  170.28</time>
   <energy>
    <i name="e_fr_energy">   -359.13366261 </i>
    <i name="e_wo_entrp">   -359.05801144 </i>
    <i name="e_0_energy">   -359.10844555 </i>
   </energy>
  </scstep>
  <scstep>
   <time name="dav">  158.85  158.72</time>
   <time name="total">  159.45  159.32</time>
   <energy>
    <i name="alphaZ">  11304.57052840 </i>
    <i name="ewald">-160660.78111346 </i>
    <i name="hartreedc"> -55252.10435375 </i>
    <i name="XCdc">   5659.34000065 </i>
    <i name="pawpsdc"> 174314.94688109 </i>
    <i name="pawaedc">-183395.44121915 </i>
    <i name="eentropy">     -0.07564712 </i>
    <i name="bandstr"> -16342.88017037 </i>
    <i name="atom"> 224013.29143063 </i>
    <i name="e_fr_energy">   -359.13366306 </i>
    <i name="e_wo_entrp">   -359.05801594 </i>
    <i name="e_0_energy">   -359.10844736 </i>
   </energy>
  </scstep>
  <structure>
   <crystal>
    <varray name="basis" >
     <v>       0.00000000       6.73275000       6.73275000 </v>
     <v>       6.73275000       0.00000000       6.73275000 </v>
     <v>       6.73275000       6.73275000       0.00000000 </v>
    </varray>
    <i name="volume">    610.39007227 </i>
    <varray name="rec_basis" >
     <v>      -0.07426386       0.07426386       0.07426386 </v>
     <v>       0.07426386      -0.07426386       0.07426386 </v>
     <v>       0.07426386       0.07426386      -0.07426386 </v>
    </varray>
   </crystal>
   <varray name="positions" >
    <v>       0.00000000       0.00000000       0.00000000 </v>
    <v>       0.00000000       0.00000000       0.25000000 </v>
    <v>       0.00000000       0.00000000       0.50000000 </v>
    <v>       0.00000000       0.00000000       0.75000000 </v>
    <v>       0.00000000       0.25000000       0.00000000 </v>
    <v>       0.00000000       0.25000000       0.25000000 </v>
    <v>       0.00000000       0.25000000       0.50000000 </v>
    <v>       0.00000000       0.25000000       0.75000000 </v>
    <v>       0.00000000       0.50000000       0.00000000 </v>
    <v>       0.00000000       0.50000000       0.25000000 </v>
    <v>       0.00000000       0.50000000       0.50000000 </v>
    <v>       0.00000000       0.50000000       0.75000000 </v>
    <v>       0.00000000       0.75000000       0.00000000 </v>
    <v>       0.00000000       0.75000000       0.25000000 </v>
    <v>       0.00000000       0.75000000       0.50000000 </v>
    <v>       0.00000000       0.75000000       0.75000000 </v>
    <v>       0.25000000       0.00000000       0.00000000 </v>
    <v>       0.25000000       0.00000000       0.25000000 </v>
    <v>       0.25000000       0.00000000       0.50000000 </v>
    <v>       0.25000000       0.00000000       0.75000000 </v>
    <v>       0.25000000       0.25000000       0.00000000 </v>
    <v>       0.25000000       0.25000000       0.25000000 </v>
    <v>       0.25000000       0.25000000       0.50000000 </v>
    <v>       0.25000000       0.25000000       0.75000000 </v>
    <v>       0.25000000       0.50000000       0.00000000 </v>
    <v>       0.25000000       0.50000000       0.25000000 </v>
    <v>       0.25000000       0.50000000       0.50000000 </v>
    <v>       0.25000000       0.50000000       0.75000000 </v>
    <v>       0.25000000       0.75000000       0.00000000 </v>
    <v>       0.25000000       0.75000000       0.25000000 </v>
    <v>       0.25000000       0.75000000       0.50000000 </v>
    <v>       0.25000000       0.75000000       0.75000000 </v>
    <v>       0.50000000       0.00000000       0.00000000 </v>
    <v>       0.50000000       0.00000000       0.25000000 </v>
    <v>       0.50000000       0.00000000       0.50000000 </v>
    <v>       0.50000000       0.00000000       0.75000000 </v>
    <v>       0.50000000       0.25000000       0.00000000 </v>
    <v>       0.50000000       0.25000000       0.25000000 </v>
    <v>       0.50000000       0.25000000       0.50000000 </v>
    <v>       0.50000000       0.25000000       0.75000000 </v>
    <v>       0.50000000       0.50000000       0.00000000 </v>
    <v>       0.50000000       0.50000000       0.25000000 </v>
    <v>       0.50000000       0.50000000       0.50000000 </v>
    <v>       0.50000000       0.50000000       0.75000000 </v>
    <v>       0.50000000       0.75000000       0.00000000 </v>
    <v>       0.50000000       0.75000000       0.25000000 </v>
    <v>       0.50000000       0.75000000       0.50000000 </v>
    <v>       0.50000000       0.75000000       0.75000000 </v>
    <v>       0.75000000       0.00000000       0.00000000 </v>
    <v>       0.75000000       0.00000000       0.25000000 </v>
    <v>       0.75000000       0.00000000       0.50000000 </v>
    <v>       0.75000000       0.00000000       0.75000000 </v>
    <v>       0.75000000       0.25000000       0.00000000 </v>
    <v>       0.75000000       0.25000000       0.25000000 </v>
    <v>       0.75000000       0.25000000       0.50000000 </v>
    <v>       0.75000000       0.25000000       0.75000000 </v>
    <v>       0.75000000       0.50000000       0.00000000 </v>
    <v>       0.75000000       0.50000000       0.25000000 </v>
    <v>       0.75000000       0.50000000       0.50000000 </v>
    <v>       0.75000000       0.50000000       0.75000000 </v>
    <v>       0.75000000       0.75000000       0.00000000 </v>
    <v>       0.75000000       0.75000000       0.25000000 </v>
    <v>       0.75000000       0.75000000       0.50000000 </v>
    <v>       0.75000000       0.75000000       0.75000000 </v>
   </varray>
  </structure>
  <varray name="forces" >
   <v>       0.00000000       0.00000000       0.00000000 </v>
   <v>      -0.00000000       0.00000000       0.00000000 </v>
   <v>      -0.00000000       0.00000000       0.00000000 </v>
   <v>      -0.00000000      -0.00000000      -0.00000000 </v>
   <v>      -0.00000000       0.00000000       0.00000000 </v>
   <v>      -0.00000000       0.00000000      -0.00000000 </v>
   <v>      -0.00000000      -0.00000000       0.00000000 </v>
   <v>      -0.00000000      -0.00000000      -0.00000000 </v>
   <v>      -0.00000000      -0.00000000       0.00000000 </v>
   <v>      -0.00000000       0.00000000       0.00000000 </v>
   <v>      -0.00000000      -0.00000000       0.00000000 </v>
   <v>       0.00000000       0.00000000      -0.00000000 </v>
   <v>       0.00000000       0.00000000      -0.00000000 </v>
   <v>       0.00000000      -0.00000000      -0.00000000 </v>
   <v>       0.00000000      -0.00000000      -0.00000000 </v>
   <v>       0.00000000       0.00000000      -0.00000000 </v>
   <v>      -0.00000000       0.00000000       0.00000000 </v>
   <v>       0.00000000      -0.00000000       0.00000000 </v>
   <v>      -0.00000000       0.00000000       0.00000000 </v>
   <v>      -0.00000000       0.00000000      -0.00000000 </v>
   <v>      -0.00000000      -0.00000000       0.00000000 </v>
   <v>       0.00000000      -0.00000000      -0.00000000 </v>
   <v>       0.00000000      -0.00000000      -0.00000000 </v>
   <v>       0.00000000       0.00000000      -0.00000000 </v>
   <v>      -0.00000000      -0.00000000       0.00000000 </v>
   <v>      -0.00000000      -0.00000000       0.00000000 </v>
   <v>      -0.00000000       0.00000000       0.00000000 </v>
   <v>       0.00000000       0.00000000      -0.00000000 </v>
   <v>      -0.00000000      -0.00000000       0.00000000 </v>
   <v>       0.00000000      -0.00000000       0.00000000 </v>
   <v>       0.00000000       0.00000000      -0.00000000 </v>
   <v>      -0.00000000      -0.00000000      -0.00000000 </v>
   <v>       0.00000000       0.00000000       0.00000000 </v>
   <v>       0.00000000      -0.00000000      -0.00000000 </v>
   <v>      -0.00000000      -0.00000000      -0.00000000 </v>
   <v>       0.00000000       0.00000000      -0.00000000 </v>
   <v>      -0.00000000      -0.00000000       0.00000000 </v>
   <v>      -0.00000000      -0.00000000      -0.00000000 </v>
   <v>      -0.00000000      -0.00000000      -0.00000000 </v>
   <v>      -0.00000000      -0.00000000      -0.00000000 </v>
   <v>      -0.00000000      -0.00000000       0.00000000 </v>
   <v>      -0.00000000      -0.00000000      -0.00000000 </v>
   <v>       0.00000000       0.00000000      -0.00000000 </v>
   <v>       0.00000000       0.00000000      -0.00000000 </v>
   <v>       0.00000000       0.00000000       0.00000000 </v>
   <v>       0.00000000      -0.00000000       0.00000000 </v>
   <v>       0.00000000       0.00000000      -0.00000000 </v>
   <v>       0.00000000       0.00000000      -0.00000000 </v>
   <v>       0.00000000      -0.00000000       0.00000000 </v>
   <v>       0.00000000       0.00000000       0.00000000 </v>
   <v>      -0.00000000      -0.00000000      -0.00000000 </v>
   <v>      -0.00000000       0.00000000       0.00000000 </v>
   <v>      -0.00000000       0.00000000       0.00000000 </v>
   <v>      -0.00000000       0.00000000      -0.00000000 </v>
   <v>       0.00000000      -0.00000000       0.00000000 </v>
   <v>       0.00000000      -0.00000000      -0.00000000 </v>
   <v>       0.00000000       0.00000000      -0.00000000 </v>
   <v>      -0.00000000       0.00000000      -0.00000000 </v>
   <v>      -0.00000000      -0.00000000       0.00000000 </v>
   <v>       0.00000000       0.00000000      -0.00000000 </v>
   <v>      -0.00000000       0.00000000       0.00000000 </v>
   <v>       0.00000000      -0.00000000       0.00000000 </v>
   <v>      -0.00000000      -0.00000000      -0.00000000 </v>
   <v>      -0.00000000       0.00000000      -0.00000000 </v>
  </varray>
  <varray name="stress" >
   <v>     200.86128091       0.00000000      -0.00000000 </v>
   <v>      -0.00000000     200.86128091       0.00000000 </v>
   <v>       0.00000000       0.00000000     200.86128091 </v>
  </varray>
  <energy>
   <i name="e_fr_energy">   -359.13366306 </i>
   <i name="e_wo_entrp">   -359.10844736 </i>
   <i name="e_0_energy">     -0.07564712 </i>
  </energy>
  <kpoints>
   <generation param="Gamma">
    <v type="int" name="divisions">       5        5        5 </v>
    <v name="usershift">      0.00000000       0.00000000       0.00000000 </v>
    <v name="genvec1">      0.20000000       0.00000000       0.00000000 </v>
    <v name="genvec2">      0.00000000       0.20000000       0.00000000 </v>
    <v name="genvec3">      0.00000000       0.00000000       0.20000000 </v>
    <v name="shift">      0.00000000       0.00000000       0.00000000 </v>
   </generation>
   <varray name="kpointlist" >
    <v>       0.00000000       0.00000000       0.00000000 </v>
    <v>       0.20000000       0.00000000       0.00000000 </v>
    <v>       0.40000000       0.00000000       0.00000000 </v>
    <v>       0.20000000       0.20000000       0.00000000 </v>
    <v>       0.40000000       0.20000000       0.00000000 </v>
    <v>      -0.40000000       0.20000000       0.00000000 </v>
    <v>      -0.20000000       0.20000000       0.00000000 </v>
    <v>       0.40000000       0.40000000       0.00000000 </v>
    <v>      -0.40000000       0.40000000       0.00000000 </v>
    <v>       0.00000000       0.20000000       0.20000000 </v>
    <v>       0.40000000       0.20000000       0.20000000 </v>
    <v>      -0.40000000       0.20000000       0.20000000 </v>
    <v>      -0.20000000       0.20000000       0.20000000 </v>
    <v>      -0.40000000       0.40000000       0.20000000 </v>
    <v>      -0.20000000       0.40000000       0.20000000 </v>
    <v>       0.40000000      -0.40000000       0.20000000 </v>
    <v>       0.00000000       0.40000000       0.40000000 </v>
    <v>      -0.20000000       0.40000000       0.40000000 </v>
   </varray>
   <varray name="weights" >
    <v>       0.00800000 </v>
    <v>       0.06400000 </v>
    <v>       0.06400000 </v>
    <v>       0.03200000 </v>
    <v>       0.12800000 </v>
    <v>       0.12800000 </v>
    <v>       0.06400000 </v>
    <v>       0.03200000 </v>
    <v>       0.06400000 </v>
    <v>       0.01600000 </v>
    <v>       0.03200000 </v>
    <v>       0.06400000 </v>
    <v>       0.06400000 </v>
    <v>       0.06400000 </v>
    <v>       0.06400000 </v>
    <v>       0.06400000 </v>
    <v>       0.01600000 </v>
    <v>       0.03200000 </v>
   </varray>
  </kpoints>
  <time name="totalsc"> 4503.62 4501.18</time>
 </calculation>
 <calculation>
  <scstep>
   <time name="dav">  571.53  571.06</time>
   <time name="total">  588.72  588.23</time>
   <energy>
    <i name="alphaZ">  11304.57052840 </i>
    <i name="ewald">-160660.60182094 </i>
    <i name="hartreedc"> -55252.28274358 </i>
    <i name="XCdc">   5659.34115771 </i>
    <i name="pawpsdc"> 174314.78547978 </i>
    <i name="pawaedc">-183395.28455085 </i>
    <i name="eentropy">     -0.07562451 </i>
    <i name="bandstr"> -16342.80051611 </i>
    <i name="atom"> 224013.29143063 </i>
    <i name="e_fr_energy">   -359.05665946 </i>
    <i name="e_wo_entrp">   -358.98103496 </i>
    <i name="e_0_energy">   -359.03145129 </i>
   </energy>
  </scstep>
  <scstep>
   <time name="dav">  465.30  464.92</time>
   <time name="total">  481.34  480.95</time>
   <energy>
    <i name="e_fr_energy">   -359.13250002 </i>
    <i name="e_wo_entrp">   -359.05691082 </i>
    <i name="e_0_energy">   -359.10730362 </i>
   </energy>
  </scstep>
  <scstep>
   <time name="dav">  514.58  514.16</time>
   <time name="total">  530.65  530.21</time>
   <energy>
    <i name="e_fr_energy">   -359.13357834 </i>
    <i name="e_wo_entrp">   -359.05793246 </i>
    <i name="e_0_energy">   -359.10836304 </i>
   </energy>
  </scstep>
  <scstep>
   <time name="dav">  526.64  526.21</time>
   <time name="total">  542.66  542.21</time>
   <energy>
    <i name="e_fr_energy">   -359.13282204 </i>
    <i name="e_wo_entrp">   -359.05719985 </i>
    <i name="e_0_energy">   -359.10761464 </i>
   </energy>
  </scstep>
  <scstep>
   <time name="dav">  482.00  481.61</time>
   <time name="total">  498.23  497.82</time>
   <energy>
    <i name="e_fr_energy">   -359.13204435 </i>
    <i name="e_wo_entrp">   -359.05641166 </i>
    <i name="e_0_energy">   -359.10683346 </i>
   </energy>
  </scstep>
  <scstep>
   <time name="dav">  527.57  527.14</time>
   <time name="total">  543.59  543.15</time>
   <energy>
    <i name="e_fr_energy">   -359.13202702 </i>
    <i name="e_wo_entrp">   -359.05639264 </i>
    <i name="e_0_energy">   -359.10681556 </i>
   </energy>
  </scstep>
  <scstep>
   <time name="dav">  487.19  486.79</time>
   <time name="total">  503.28  502.87</time>
   <energy>
    <i name="e_fr_energy">   -359.13196580 </i>
    <i name="e_wo_entrp">   -359.05633322 </i>
    <i name="e_0_energy">   -359.10675494 </i>
   </energy>
  </scstep>
  <scstep>
   <time name="dav">  502.38  501.96</time>
   <time name="total">  518.57  518.15</time>
   <energy>
    <i name="e_fr_energy">   -359.13195315 </i>
    <i name="e_wo_entrp">   -359.05632107 </i>
    <i name="e_0_energy">   -359.10674246 </i>
   </energy>
  </scstep>
  <scstep>
   <time name="dav">  560.60  560.14</time>
   <time name="total">  576.87  576.39</time>
   <energy>
    <i name="e_fr_energy">   -359.13190527 </i>
    <i name="e_wo_entrp">   -359.05627250 </i>
    <i name="e_0_energy">   -359.10669435 </i>
   </energy>
  </scstep>
  <scstep>
   <time name="dav">  549.66  549.21</time>
   <time name="total">  565.78  565.32</time>
   <energy>
    <i name="e_fr_energy">   -359.13186445 </i>
    <i name="e_wo_entrp">   -359.05623164 </i>
    <i name="e_0_energy">   -359.10665351 </i>
   </energy>
  </scstep>
  <scstep>
   <time name="dav">  554.02  553.56</time>
   <time name="total">  570.08  569.61</time>
   <energy>
    <i name="e_fr_energy">   -359.13186875 </i>
    <i name="e_wo_entrp">   -359.05623622 </i>
    <i name="e_0_energy">   -359.10665791 </i>
   </energy>
  </scstep>
  <scstep>
   <time name="dav">  458.23  457.85</time>
   <time name="total">  474.34  473.95</time>
   <energy>
    <i name="e_fr_energy">   -359.13186577 </i>
    <i name="e_wo_entrp">   -359.05623438 </i>
    <i name="e_0_energy">   -359.10665530 </i>
   </energy>
  </scstep>
  <scstep>
   <time name="dav">  285.71  285.47</time>
   <time name="total">  286.32  286.08</time>
   <energy>
    <i name="alphaZ">  11304.57052840 </i>
    <i name="ewald">-160660.60182094 </i>
    <i name="hartreedc"> -55252.27702213 </i>
    <i name="XCdc">   5659.34069810 </i>
    <i name="pawpsdc"> 174314.74204572 </i>
    <i name="pawaedc">-183395.24369203 </i>
    <i name="eentropy">     -0.07563147 </i>
    <i name="bandstr"> -16342.87840218 </i>
    <i name="atom"> 224013.29143063 </i>
    <i name="e_fr_energy">   -359.13186591 </i>
    <i name="e_wo_entrp">   -359.05623443 </i>
    <i name="e_0_energy">   -359.10665542 </i>
   </energy>
  </scstep>
  <structure>
   <crystal>
    <varray name="basis" >
     <v>       0.00000000       6.73275000       6.73275000 </v>
     <v>       6.73275000       0.00000000       6.73275000 </v>
     <v>       6.73275000       6.73275000       0.00000000 </v>
    </varray>
    <i name="volume">    610.39007227 </i>
    <varray name="rec_basis" >
     <v>      -0.07426386       0.07426386       0.07426386 </v>
     <v>       0.07426386      -0.07426386       0.07426386 </v>
     <v>       0.07426386       0.07426386      -0.07426386 </v>
    </varray>
   </crystal>
   <varray name="positions" >
    <v>      -0.00111396       0.00111396       0.00111396 </v>
    <v>       0.00000000       0.00000000       0.25000000 </v>
    <v>       0.00000000       0.00000000       0.50000000 </v>
    <v>       0.00000000       0.00000000       0.75000000 </v>
    <v>       0.00000000       0.25000000       0.00000000 </v>
    <v>       0.00000000       0.25000000       0.25000000 </v>
    <v>       0.00000000       0.25000000       0.50000000 </v>
    <v>       0.00000000       0.25000000       0.75000000 </v>
    <v>       0.00000000       0.50000000       0.00000000 </v>
    <v>       0.00000000       0.50000000       0.25000000 </v>
    <v>       0.00000000       0.50000000       0.50000000 </v>
    <v>       0.00000000       0.50000000       0.75000000 </v>
    <v>       0.00000000       0.75000000       0.00000000 </v>
    <v>       0.00000000       0.75000000       0.25000000 </v>
    <v>       0.00000000       0.75000000       0.50000000 </v>
    <v>       0.00000000       0.75000000       0.75000000 </v>
    <v>       0.25000000       0.00000000       0.00000000 </v>
    <v>       0.25000000       0.00000000       0.25000000 </v>
    <v>       0.25000000       0.00000000       0.50000000 </v>
    <v>       0.25000000       0.00000000       0.75000000 </v>
    <v>       0.25000000       0.25000000       0.00000000 </v>
    <v>       0.25000000       0.25000000       0.25000000 </v>
    <v>       0.25000000       0.25000000       0.50000000 </v>
    <v>       0.25000000       0.25000000       0.75000000 </v>
    <v>       0.25000000       0.50000000       0.00000000 </v>
    <v>       0.25000000       0.50000000       0.25000000 </v>
    <v>       0.25000000       0.50000000       0.50000000 </v>
    <v>       0.25000000       0.50000000       0.75000000 </v>
    <v>       0.25000000       0.75000000       0.00000000 </v>
    <v>       0.25000000       0.75000000       0.25000000 </v>
    <v>       0.25000000       0.75000000       0.50000000 </v>
    <v>       0.25000000       0.75000000       0.75000000 </v>
    <v>       0.50000000       0.00000000       0.00000000 </v>
    <v>       0.50000000       0.00000000       0.25000000 </v>
    <v>       0.50000000       0.00000000       0.50000000 </v>
    <v>       0.50000000       0.00000000       0.75000000 </v>
    <v>       0.50000000       0.25000000       0.00000000 </v>
    <v>       0.50000000       0.25000000       0.25000000 </v>
    <v>       0.50000000       0.25000000       0.50000000 </v>
    <v>       0.50000000       0.25000000       0.75000000 </v>
    <v>       0.50000000       0.50000000       0.00000000 </v>
    <v>       0.50000000       0.50000000       0.25000000 </v>
    <v>       0.50000000       0.50000000       0.50000000 </v>
    <v>       0.50000000       0.50000000       0.75000000 </v>
    <v>       0.50000000       0.75000000       0.00000000 </v>
    <v>       0.50000000       0.75000000       0.25000000 </v>
    <v>       0.50000000       0.75000000       0.50000000 </v>
    <v>       0.50000000       0.75000000       0.75000000 </v>
    <v>       0.75000000       0.00000000       0.00000000 </v>
    <v>       0.75000000       0.00000000       0.25000000 </v>
    <v>       0.75000000       0.00000000       0.50000000 </v>
    <v>       0.75000000       0.00000000       0.75000000 </v>
    <v>       0.75000000       0.25000000       0.00000000 </v>
    <v>       0.75000000       0.25000000       0.25000000 </v>
    <v>       0.75000000       0.25000000       0.50000000 </v>
    <v>       0.75000000       0.25000000       0.75000000 </v>
    <v>       0.75000000       0.50000000       0.00000000 </v>
    <v>       0.75000000       0.50000000       0.25000000 </v>
    <v>       0.75000000       0.50000000       0.50000000 </v>
    <v>       0.75000000       0.50000000       0.75000000 </v>
    <v>       0.75000000       0.75000000       0.00000000 </v>
    <v>       0.75000000       0.75000000       0.25000000 </v>
    <v>       0.75000000       0.75000000       0.50000000 </v>
    <v>       0.75000000       0.75000000       0.75000000 </v>
   </varray>
  </structure>
  <varray name="forces" >
   <v>      -0.23891110      -0.00000000       0.00000000 </v>
   <v>       0.02884628       0.03400083       0.00000000 </v>
   <v>       0.00002596      -0.00027296       0.00000000 </v>
   <v>       0.02768061       0.03225677       0.00000000 </v>
   <v>       0.02884628      -0.00000000       0.03400083 </v>
   <v>       0.00156956       0.00087154       0.00087154 </v>
   <v>       0.00035915       0.00095308      -0.00044589 </v>
   <v>      -0.00223673       0.00017957      -0.00017957 </v>
   <v>       0.00002596      -0.00000000      -0.00027296 </v>
   <v>       0.00035915      -0.00044589       0.00095308 </v>
   <v>       0.00003699      -0.00000000       0.00000000 </v>
   <v>       0.00035495      -0.00045490       0.00079959 </v>
   <v>       0.02768061      -0.00000000       0.03225677 </v>
   <v>      -0.00223673      -0.00017957       0.00017957 </v>
   <v>       0.00035495       0.00079959      -0.00045490 </v>
   <v>       0.00170883       0.00085409       0.00085409 </v>
   <v>      -0.00223673      -0.00017957      -0.00017957 </v>
   <v>       0.00035495       0.00079959       0.00045490 </v>
   <v>       0.00170883       0.00085409      -0.00085409 </v>
   <v>       0.02768061      -0.00000000      -0.03225677 </v>
   <v>       0.00035495       0.00045490       0.00079959 </v>
   <v>       0.00010979      -0.00000000       0.00000000 </v>
   <v>       0.00035915       0.00044589      -0.00095308 </v>
   <v>      -0.00047448      -0.00000000      -0.00014071 </v>
   <v>       0.00170883      -0.00085409       0.00085409 </v>
   <v>       0.00035915      -0.00095308       0.00044589 </v>
   <v>      -0.00044694      -0.00006650      -0.00006650 </v>
   <v>       0.00023849      -0.00000000      -0.00024451 </v>
   <v>       0.02768061      -0.03225677       0.00000000 </v>
   <v>      -0.00047448      -0.00014071       0.00000000 </v>
   <v>       0.00023849      -0.00024451       0.00000000 </v>
   <v>       0.00285203      -0.00000000       0.00000000 </v>
   <v>       0.00003699      -0.00000000       0.00000000 </v>
   <v>       0.00035495      -0.00045490      -0.00079959 </v>
   <v>       0.00002596      -0.00000000       0.00027296 </v>
   <v>       0.00035915      -0.00044589      -0.00095308 </v>
   <v>       0.00035495      -0.00079959      -0.00045490 </v>
   <v>       0.00156956      -0.00087154      -0.00087154 </v>
   <v>       0.00009378      -0.00000000       0.00010230 </v>
   <v>      -0.00044694       0.00006650      -0.00006650 </v>
   <v>       0.00002596       0.00027296       0.00000000 </v>
   <v>       0.00009378       0.00010230       0.00000000 </v>
   <v>      -0.00056151      -0.00000000       0.00000000 </v>
   <v>       0.00023849       0.00024451       0.00000000 </v>
   <v>       0.00035915      -0.00095308      -0.00044589 </v>
   <v>      -0.00044694      -0.00006650       0.00006650 </v>
   <v>       0.00023849      -0.00000000       0.00024451 </v>
   <v>       0.00170883      -0.00085409      -0.00085409 </v>
   <v>      -0.00223673       0.00017957       0.00017957 </v>
   <v>       0.02884628      -0.00000000      -0.03400083 </v>
   <v>       0.00156956       0.00087154      -0.00087154 </v>
   <v>       0.00035915       0.00095308       0.00044589 </v>
   <v>       0.02884628      -0.03400083       0.00000000 </v>
   <v>       0.00259280      -0.00000000       0.00000000 </v>
   <v>       0.00009378      -0.00010230       0.00000000 </v>
   <v>      -0.00047448       0.00014071       0.00000000 </v>
   <v>       0.00156956      -0.00087154       0.00087154 </v>
   <v>       0.00009378      -0.00000000      -0.00010230 </v>
   <v>      -0.00044694       0.00006650       0.00006650 </v>
   <v>       0.00035495      -0.00079959       0.00045490 </v>
   <v>       0.00035915       0.00044589       0.00095308 </v>
   <v>      -0.00047448      -0.00000000       0.00014071 </v>
   <v>       0.00035495       0.00045490      -0.00079959 </v>
   <v>       0.00010979      -0.00000000       0.00000000 </v>
  </varray>
  <varray name="stress" >
   <v>     200.80054145       0.00000000       0.00000000 </v>
   <v>       0.00000000     200.80007256      -0.00000000 </v>
   <v>      -0.00000000      -0.00000000     200.80007256 </v>
  </varray>
  <energy>
   <i name="e_fr_energy">   -359.13186591 </i>
   <i name="e_wo_entrp">   -359.10665542 </i>
   <i name="e_0_energy">     -0.07563147 </i>
  </energy>
  <kpoints>
   <generation param="Gamma">
    <v type="int" name="divisions">       5        5        5 </v>
    <v name="usershift">      0.00000000       0.00000000       0.00000000 </v>
    <v name="genvec1">      0.20000000       0.00000000       0.00000000 </v>
    <v name="genvec2">      0.00000000       0.20000000       0.00000000 </v>
    <v name="genvec3">      0.00000000       0.00000000       0.20000000 </v>
    <v name="shift">      0.00000000       0.00000000       0.00000000 </v>
   </generation>
   <varray name="kpointlist" >
    <v>       0.00000000       0.00000000       0.00000000 </v>
    <v>       0.20000000       0.00000000       0.00000000 </v>
    <v>       0.40000000       0.00000000       0.00000000 </v>
    <v>       0.20000000       0.20000000       0.00000000 </v>
    <v>       0.40000000       0.20000000       0.00000000 </v>
    <v>      -0.40000000       0.20000000       0.00000000 </v>
    <v>      -0.20000000       0.20000000       0.00000000 </v>
    <v>       0.40000000       0.40000000       0.00000000 </v>
    <v>      -0.40000000       0.40000000       0.00000000 </v>
    <v>       0.00000000       0.20000000       0.20000000 </v>
    <v>       0.40000000       0.20000000       0.20000000 </v>
    <v>      -0.40000000       0.20000000       0.20000000 </v>
    <v>      -0.20000000       0.20000000       0.20000000 </v>
    <v>      -0.40000000       0.40000000       0.20000000 </v>
    <v>      -0.20000000       0.40000000       0.20000000 </v>
    <v>       0.40000000      -0.40000000       0.20000000 </v>
    <v>       0.00000000       0.40000000       0.40000000 </v>
    <v>      -0.20000000       0.40000000       0.40000000 </v>
   </varray>
   <varray name="weights" >
    <v>       0.00800000 </v>
    <v>       0.06400000 </v>
    <v>       0.06400000 </v>
    <v>       0.03200000 </v>
    <v>       0.12800000 </v>
    <v>       0.12800000 </v>
    <v>       0.06400000 </v>
    <v>       0.03200000 </v>
    <v>       0.06400000 </v>
    <v>       0.01600000 </v>
    <v>       0.03200000 </v>
    <v>       0.06400000 </v>
    <v>       0.06400000 </v>
    <v>       0.06400000 </v>
    <v>       0.06400000 </v>
    <v>       0.06400000 </v>
    <v>       0.01600000 </v>
    <v>       0.03200000 </v>
   </varray>
  </kpoints>
  <time name="totalsc"> 7257.68 7256.00</time>
 </calculation>
 <calculation>
  <scstep>
   <time name="dav">  562.52  562.05</time>
   <time name="total">  578.52  578.05</time>
   <energy>
    <i name="alphaZ">  11304.57052840 </i>
    <i name="ewald">-160660.60182094 </i>
    <i name="hartreedc"> -55252.32464072 </i>
    <i name="XCdc">   5659.34317167 </i>
    <i name="pawpsdc"> 174314.72559420 </i>
    <i name="pawaedc">-183395.22716838 </i>
    <i name="eentropy">     -0.07557080 </i>
    <i name="bandstr"> -16342.56885866 </i>
    <i name="atom"> 224013.29143063 </i>
    <i name="e_fr_energy">   -358.86733459 </i>
    <i name="e_wo_entrp">   -358.79176380 </i>
    <i name="e_0_energy">   -358.84214433 </i>
   </energy>
  </scstep>
  <scstep>
   <time name="dav">  466.18  465.79</time>
   <time name="total">  483.28  482.88</time>
   <energy>
    <i name="e_fr_energy">   -359.13967441 </i>
    <i name="e_wo_entrp">   -359.06429071 </i>
    <i name="e_0_energy">   -359.11454651 </i>
   </energy>
  </scstep>
  <scstep>
   <time name="dav">  523.57  523.14</time>
   <time name="total">  540.54  540.10</time>
   <energy>
    <i name="e_fr_energy">   -359.13487506 </i>
    <i name="e_wo_entrp">   -359.05920468 </i>
    <i name="e_0_energy">   -359.10965160 </i>
   </energy>
  </scstep>
  <scstep>
   <time name="dav">  553.09  552.64</time>
   <time name="total">  570.06  569.59</time>
   <energy>
    <i name="e_fr_energy">   -359.13710008 </i>
    <i name="e_wo_entrp">   -359.06152411 </i>
    <i name="e_0_energy">   -359.11190809 </i>
   </energy>
  </scstep>
  <scstep>
   <time name="dav">  486.31  485.91</time>
   <time name="total">  503.29  502.88</time>
   <energy>
    <i name="e_fr_energy">   -359.13250771 </i>
    <i name="e_wo_entrp">   -359.05686783 </i>
    <i name="e_0_energy">   -359.10729442 </i>
   </energy>
  </scstep>
  <scstep>
   <time name="dav">  526.20  525.77</time>
   <time name="total">  543.23  542.78</time>
   <energy>
    <i name="e_fr_energy">   -359.13239534 </i>
    <i name="e_wo_entrp">   -359.05675104 </i>
    <i name="e_0_energy">   -359.10718057 </i>
   </energy>
  </scstep>
  <scstep>
   <time name="dav">  497.19  496.78</time>
   <time name="total">  514.05  513.63</time>
   <energy>
    <i name="e_fr_energy">   -359.13222221 </i>
    <i name="e_wo_entrp">   -359.05658475 </i>
    <i name="e_0_energy">   -359.10700972 </i>
   </energy>
  </scstep>
  <scstep>
   <time name="dav">  508.45  508.03</time>
   <time name="total">  525.35  524.92</time>
   <energy>
    <i name="e_fr_energy">   -359.13210539 </i>
    <i name="e_wo_entrp">   -359.05647352 </i>
    <i name="e_0_energy">   -359.10689477 </i>
   </energy>
  </scstep>
  <scstep>
   <time name="dav">  528.64  528.21</time>
   <time name="total">  545.39  544.94</time>
   <energy>
    <i name="e_fr_energy">   -359.13213900 </i>
    <i name="e_wo_entrp">   -359.05650749 </i>
    <i name="e_0_energy">   -359.10692850 </i>
   </energy>
  </scstep>
  <scstep>
   <time name="dav">  537.36  536.92</time>
   <time name="total">  554.02  553.56</time>
   <energy>
    <i name="e_fr_energy">   -359.13190993 </i>
    <i name="e_wo_entrp">   -359.05628276 </i>
    <i name="e_0_energy">   -359.10670087 </i>
   </energy>
  </scstep>
  <scstep>
   <time name="dav">  555.52  555.07</time>
   <time name="total">  572.37  571.93</time>
   <energy>
    <i name="e_fr_energy">   -359.13186322 </i>
    <i name="e_wo_entrp">   -359.05623396 </i>
    <i name="e_0_energy">   -359.10665347 </i>
   </energy>
  </scstep>
  <scstep>
   <time name="dav">  480.36  479.97</time>
   <time name="total">  497.26  496.85</time>
   <energy>
    <i name="e_fr_energy">   -359.13186725 </i>
    <i name="e_wo_entrp">   -359.05623812 </i>
    <i name="e_0_energy">   -359.10665754 </i>
   </energy>
  </scstep>
  <scstep>
   <time name="dav">  444.14  443.78</time>
   <time name="total">  460.98  460.60</time>
   <energy>
    <i name="e_fr_energy">   -359.13186609 </i>
    <i name="e_wo_entrp">   -359.05623614 </i>
    <i name="e_0_energy">   -359.10665611 </i>
   </energy>
  </scstep>
  <scstep>
   <time name="dav">  322.60  322.34</time>
   <time name="total">  323.21  322.95</time>
   <energy>
    <i name="alphaZ">  11304.57052840 </i>
    <i name="ewald">-160660.60182094 </i>
    <i name="hartreedc"> -55252.27174807 </i>
    <i name="XCdc">   5659.34049500 </i>
    <i name="pawpsdc"> 174314.73465226 </i>
    <i name="pawaedc">-183395.23674645 </i>
    <i name="eentropy">     -0.07563137 </i>
    <i name="bandstr"> -16342.88302643 </i>
    <i name="atom"> 224013.29143063 </i>
    <i name="e_fr_energy">   -359.13186696 </i>
    <i name="e_wo_entrp">   -359.05623559 </i>
    <i name="e_0_energy">   -359.10665651 </i>
   </energy>
  </scstep>
  <structure>
   <crystal>
    <varray name="basis" >
     <v>       0.00000000       6.73275000       6.73275000 </v>
     <v>       6.73275000       0.00000000       6.73275000 </v>
     <v>       6.73275000       6.73275000       0.00000000 </v>
    </varray>
    <i name="volume">    610.39007227 </i>
    <varray name="rec_basis" >
     <v>      -0.07426386       0.07426386       0.07426386 </v>
     <v>       0.07426386      -0.07426386       0.07426386 </v>
     <v>       0.07426386       0.07426386      -0.07426386 </v>
    </varray>
   </crystal>
   <varray name="positions" >
    <v>       0.00111396      -0.00111396      -0.00111396 </v>
    <v>       0.00000000       0.00000000       0.25000000 </v>
    <v>       0.00000000       0.00000000       0.50000000 </v>
    <v>       0.00000000       0.00000000       0.75000000 </v>
    <v>       0.00000000       0.25000000       0.00000000 </v>
    <v>       0.00000000       0.25000000       0.25000000 </v>
    <v>       0.00000000       0.25000000       0.50000000 </v>
    <v>       0.00000000       0.25000000       0.75000000 </v>
    <v>       0.00000000       0.50000000       0.00000000 </v>
    <v>       0.00000000       0.50000000       0.25000000 </v>
    <v>       0.00000000       0.50000000       0.50000000 </v>
    <v>       0.00000000       0.50000000       0.75000000 </v>
    <v>       0.00000000       0.75000000       0.00000000 </v>
    <v>       0.00000000       0.75000000       0.25000000 </v>
    <v>       0.00000000       0.75000000       0.50000000 </v>
    <v>       0.00000000       0.75000000       0.75000000 </v>
    <v>       0.25000000       0.00000000       0.00000000 </v>
    <v>       0.25000000       0.00000000       0.25000000 </v>
    <v>       0.25000000       0.00000000       0.50000000 </v>
    <v>       0.25000000       0.00000000       0.75000000 </v>
    <v>       0.25000000       0.25000000       0.00000000 </v>
    <v>       0.25000000       0.25000000       0.25000000 </v>
    <v>       0.25000000       0.25000000       0.50000000 </v>
    <v>       0.25000000       0.25000000       0.75000000 </v>
    <v>       0.25000000       0.50000000       0.00000000 </v>
    <v>       0.25000000       0.50000000       0.25000000 </v>
    <v>       0.25000000       0.50000000       0.50000000 </v>
    <v>       0.25000000       0.50000000       0.75000000 </v>
    <v>       0.25000000       0.75000000       0.00000000 </v>
    <v>       0.25000000       0.75000000       0.25000000 </v>
    <v>       0.25000000       0.75000000       0.50000000 </v>
    <v>       0.25000000       0.75000000       0.75000000 </v>
    <v>       0.50000000       0.00000000       0.00000000 </v>
    <v>       0.50000000       0.00000000       0.25000000 </v>
    <v>       0.50000000       0.00000000       0.50000000 </v>
    <v>       0.50000000       0.00000000       0.75000000 </v>
    <v>       0.50000000       0.25000000       0.00000000 </v>
    <v>       0.50000000       0.25000000       0.25000000 </v>
    <v>       0.50000000       0.25000000       0.50000000 </v>
    <v>       0.50000000       0.25000000       0.75000000 </v>
    <v>       0.50000000       0.50000000       0.00000000 </v>
    <v>       0.50000000       0.50000000       0.25000000 </v>
    <v>       0.50000000       0.50000000       0.50000000 </v>
    <v>       0.50000000       0.50000000       0.75000000 </v>
    <v>       0.50000000       0.75000000       0.00000000 </v>
    <v>       0.50000000       0.75000000       0.25000000 </v>
    <v>       0.50000000       0.75000000       0.50000000 </v>
    <v>       0.50000000       0.75000000       0.75000000 </v>
    <v>       0.75000000       0.00000000       0.00000000 </v>
    <v>       0.75000000       0.00000000       0.25000000 </v>
    <v>       0.75000000       0.00000000       0.50000000 </v>
    <v>       0.75000000       0.00000000       0.75000000 </v>
    <v>       0.75000000       0.25000000       0.00000000 </v>
    <v>       0.75000000       0.25000000       0.25000000 </v>
    <v>       0.75000000       0.25000000       0.50000000 </v>
    <v>       0.75000000       0.25000000       0.75000000 </v>
    <v>       0.75000000       0.50000000       0.00000000 </v>
    <v>       0.75000000       0.50000000       0.25000000 </v>
    <v>       0.75000000       0.50000000       0.50000000 </v>
    <v>       0.75000000       0.50000000       0.75000000 </v>
    <v>       0.75000000       0.75000000       0.00000000 </v>
    <v>       0.75000000       0.75000000       0.25000000 </v>
    <v>       0.75000000       0.75000000       0.50000000 </v>
    <v>       0.75000000       0.75000000       0.75000000 </v>
   </varray>
  </structure>
  <varray name="forces" >
   <v>       0.24027628       0.00000000      -0.00000000 </v>
   <v>      -0.02794933      -0.03281047      -0.00000000 </v>
   <v>      -0.00011197       0.00024205      -0.00000000 </v>
   <v>      -0.02911709      -0.03454197      -0.00000000 </v>
   <v>      -0.02794933       0.00000000      -0.03281047 </v>
   <v>      -0.00174023      -0.00080811      -0.00080811 </v>
   <v>      -0.00039507      -0.00088049       0.00051155 </v>
   <v>       0.00262352       0.00018804      -0.00018804 </v>
   <v>      -0.00011197       0.00000000       0.00024205 </v>
   <v>      -0.00039507       0.00051155      -0.00088049 </v>
   <v>       0.00008206       0.00000000      -0.00000000 </v>
   <v>      -0.00029451       0.00039143      -0.00090682 </v>
   <v>      -0.02911709       0.00000000      -0.03454197 </v>
   <v>       0.00262352      -0.00018804       0.00018804 </v>
   <v>      -0.00029451      -0.00090682       0.00039143 </v>
   <v>      -0.00172437      -0.00094103      -0.00094103 </v>
   <v>       0.00262352      -0.00018804      -0.00018804 </v>
   <v>      -0.00029451      -0.00090682      -0.00039143 </v>
   <v>      -0.00172437      -0.00094103       0.00094103 </v>
   <v>      -0.02911709       0.00000000       0.03454197 </v>
   <v>      -0.00029451      -0.00039143      -0.00090682 </v>
   <v>      -0.00024231       0.00000000      -0.00000000 </v>
   <v>      -0.00039507      -0.00051155       0.00088049 </v>
   <v>       0.00061916       0.00000000      -0.00002065 </v>
   <v>      -0.00172437       0.00094103      -0.00094103 </v>
   <v>      -0.00039507       0.00088049      -0.00051155 </v>
   <v>       0.00053696      -0.00005843      -0.00005843 </v>
   <v>      -0.00013482       0.00000000       0.00005652 </v>
   <v>      -0.02911709       0.03454197      -0.00000000 </v>
   <v>       0.00061916      -0.00002065      -0.00000000 </v>
   <v>      -0.00013482       0.00005652      -0.00000000 </v>
   <v>      -0.00299794       0.00000000      -0.00000000 </v>
   <v>       0.00008206       0.00000000      -0.00000000 </v>
   <v>      -0.00029451       0.00039143       0.00090682 </v>
   <v>      -0.00011197       0.00000000      -0.00024205 </v>
   <v>      -0.00039507       0.00051155       0.00088049 </v>
   <v>      -0.00029451       0.00090682       0.00039143 </v>
   <v>      -0.00174023       0.00080811       0.00080811 </v>
   <v>      -0.00025547       0.00000000      -0.00020203 </v>
   <v>       0.00053696       0.00005843      -0.00005843 </v>
   <v>      -0.00011197      -0.00024205      -0.00000000 </v>
   <v>      -0.00025547      -0.00020203      -0.00000000 </v>
   <v>       0.00062785       0.00000000      -0.00000000 </v>
   <v>      -0.00013482      -0.00005652      -0.00000000 </v>
   <v>      -0.00039507       0.00088049       0.00051155 </v>
   <v>       0.00053696      -0.00005843       0.00005843 </v>
   <v>      -0.00013482       0.00000000      -0.00005652 </v>
   <v>      -0.00172437       0.00094103       0.00094103 </v>
   <v>       0.00262352       0.00018804       0.00018804 </v>
   <v>      -0.02794933       0.00000000       0.03281047 </v>
   <v>      -0.00174023      -0.00080811       0.00080811 </v>
   <v>      -0.00039507      -0.00088049      -0.00051155 </v>
   <v>      -0.02794933       0.03281047      -0.00000000 </v>
   <v>      -0.00305442       0.00000000      -0.00000000 </v>
   <v>      -0.00025547       0.00020203      -0.00000000 </v>
   <v>       0.00061916       0.00002065      -0.00000000 </v>
   <v>      -0.00174023       0.00080811      -0.00080811 </v>
   <v>      -0.00025547       0.00000000       0.00020203 </v>
   <v>       0.00053696       0.00005843       0.00005843 </v>
   <v>      -0.00029451       0.00090682      -0.00039143 </v>
   <v>      -0.00039507      -0.00051155      -0.00088049 </v>
   <v>       0.00061916       0.00000000       0.00002065 </v>
   <v>      -0.00029451      -0.00039143       0.00090682 </v>
   <v>      -0.00024231       0.00000000      -0.00000000 </v>
  </varray>
  <varray name="stress" >
   <v>     200.79721845      -0.00000000       0.00000000 </v>
   <v>      -0.00000000     200.79934225       0.00000000 </v>
   <v>      -0.00000000       0.00000000     200.79934225 </v>
  </varray>
  <energy>
   <i name="e_fr_energy">   -359.13186696 </i>
   <i name="e_wo_entrp">   -359.10665651 </i>
   <i name="e_0_energy">     -0.07563137 </i>
  </energy>
  <dynmat>
   <varray name="hessian" >
    <v>      -0.27215731       0.00000000       0.00000000       0.03225800       0.03794231       0.00000000       0.00007834      -0.00029250      -0.00000000       0.03225800       0.03794231      -0.00000000       0.03225800      -0.00000000       0.03794231       0.00191486       0.00099602       0.00099602       0.00039861       0.00099602      -0.00051223      -0.00276041      -0.00000000      -0.00000000       0.00007834       0.00000000      -0.00029250       0.00039861      -0.00051223       0.00099602      -0.00002560       0.00000000      -0.00000000       0.00039861      -0.00051223       0.00099602       0.03225800       0.00000000       0.03794231      -0.00276041       0.00000000       0.00000000       0.00039861       0.00099602      -0.00051223       0.00191486       0.00099602       0.00099602      -0.00276041      -0.00000000       0.00000000       0.00039861       0.00099602       0.00051223       0.00191486       0.00099602      -0.00099602       0.03225800      -0.00000000      -0.03794231       0.00039861       0.00051223       0.00099602       0.00019998       0.00000000      -0.00000000       0.00039861       0.00051223      -0.00099602      -0.00062114       0.00000000      -0.00000000       0.00191486      -0.00099602       0.00099602       0.00039861      -0.00099602       0.00051223      -0.00055881      -0.00000000      -0.00000000       0.00020519      -0.00000000      -0.00017191       0.03225800      -0.03794231       0.00000000      -0.00062114      -0.00000000      -0.00000000       0.00020519      -0.00017191      -0.00000000       0.00326495      -0.00000000      -0.00000000      -0.00002560       0.00000000      -0.00000000       0.00039861      -0.00051223      -0.00099602       0.00007834       0.00000000       0.00029250       0.00039861      -0.00051223      -0.00099602       0.00039861      -0.00099602      -0.00051223       0.00191486      -0.00099602      -0.00099602       0.00020519       0.00000000       0.00017191      -0.00055881       0.00000000      -0.00000000       0.00007834       0.00029250      -0.00000000       0.00020519       0.00017191      -0.00000000      -0.00067550      -0.00000000       0.00000000       0.00020519       0.00017191      -0.00000000       0.00039861      -0.00099602      -0.00051223      -0.00055881      -0.00000000      -0.00000000       0.00020519      -0.00000000       0.00017191       0.00191486      -0.00099602      -0.00099602      -0.00276041       0.00000000      -0.00000000       0.03225800       0.00000000      -0.03794231       0.00191486       0.00099602      -0.00099602       0.00039861       0.00099602       0.00051223       0.03225800      -0.03794231      -0.00000000       0.00326495       0.00000000       0.00000000       0.00020519      -0.00017191       0.00000000      -0.00062114       0.00000000       0.00000000       0.00191486      -0.00099602       0.00099602       0.00020519       0.00000000      -0.00017191      -0.00055881       0.00000000       0.00000000       0.00039861      -0.00099602       0.00051223       0.00039861       0.00051223       0.00099602      -0.00062114      -0.00000000       0.00000000       0.00039861       0.00051223      -0.00099602       0.00019998       0.00000000      -0.00000000 </v>
    <v>       0.00000000      -0.27215731       0.00000000       0.03794231       0.03225800      -0.00000000      -0.00029250       0.00007834      -0.00000000       0.03794231       0.03225800       0.00000000       0.00000000      -0.00276041      -0.00000000       0.00099602       0.00039861       0.00051223       0.00099602       0.00191486      -0.00099602       0.00000000       0.03225800      -0.03794231       0.00000000      -0.00002560      -0.00000000      -0.00051223       0.00039861      -0.00099602       0.00000000       0.00007834       0.00029250      -0.00051223       0.00039861      -0.00099602      -0.00000000      -0.00276041       0.00000000      -0.00000000       0.03225800      -0.03794231       0.00099602       0.00191486      -0.00099602       0.00099602       0.00039861       0.00051223       0.00000000       0.03225800       0.03794231       0.00099602       0.00191486       0.00099602       0.00099602       0.00039861      -0.00051223       0.00000000      -0.00276041       0.00000000       0.00051223       0.00039861       0.00099602       0.00000000       0.00019998      -0.00000000       0.00051223       0.00039861      -0.00099602      -0.00000000      -0.00062114      -0.00000000      -0.00099602       0.00039861      -0.00051223      -0.00099602       0.00191486      -0.00099602       0.00000000       0.00020519       0.00017191       0.00000000      -0.00055881      -0.00000000      -0.03794231       0.03225800       0.00000000       0.00000000       0.00326495       0.00000000      -0.00017191       0.00020519       0.00000000       0.00000000      -0.00062114      -0.00000000       0.00000000       0.00007834      -0.00029250      -0.00051223       0.00039861       0.00099602       0.00000000      -0.00002560      -0.00000000      -0.00051223       0.00039861       0.00099602      -0.00099602       0.00191486       0.00099602      -0.00099602       0.00039861       0.00051223      -0.00000000      -0.00055881      -0.00000000      -0.00000000       0.00020519      -0.00017191       0.00029250       0.00007834      -0.00000000       0.00017191       0.00020519      -0.00000000      -0.00000000      -0.00067550       0.00000000       0.00017191       0.00020519      -0.00000000      -0.00099602       0.00191486       0.00099602       0.00000000       0.00020519      -0.00017191       0.00000000      -0.00055881      -0.00000000      -0.00099602       0.00039861       0.00051223      -0.00000000       0.03225800       0.03794231      -0.00000000      -0.00276041      -0.00000000       0.00099602       0.00039861      -0.00051223       0.00099602       0.00191486       0.00099602      -0.03794231       0.03225800      -0.00000000      -0.00000000      -0.00062114       0.00000000      -0.00017191       0.00020519      -0.00000000      -0.00000000       0.00326495      -0.00000000      -0.00099602       0.00039861      -0.00051223      -0.00000000      -0.00055881       0.00000000      -0.00000000       0.00020519       0.00017191      -0.00099602       0.00191486      -0.00099602       0.00051223       0.00039861       0.00099602       0.00000000      -0.00062114       0.00000000       0.00051223       0.00039861      -0.00099602       0.00000000       0.00019998      -0.00000000 </v>
[...]
       <r>    26.4480     0.0000   648.0000 </r>
       <r>    26.7396     0.0000   648.0000 </r>
       <r>    27.0311     0.0000   648.0000 </r>
       <r>    27.3227     0.0000   648.0000 </r>
       <r>    27.6143     0.0000   648.0000 </r>
       <r>    27.9058     0.0000   648.0000 </r>
       <r>    28.1974     0.0000   648.0000 </r>
       <r>    28.4889     0.0000   648.0000 </r>
       <r>    28.7805     0.0000   648.0000 </r>
      </set>
      <set comment="spin 2">
       <r>   -58.6890     0.0000     0.0000 </r>
       <r>   -58.3975     0.0000     0.0000 </r>
       <r>   -58.1059     0.0000     0.0000 </r>
       <r>   -57.8143     0.0000     0.0000 </r>
       <r>   -57.5228     0.0000     0.0000 </r>
       <r>   -57.2312     0.0000     0.0000 </r>
       <r>   -56.9397     0.0000     0.0000 </r>
       <r>   -56.6481     0.0000     0.0000 </r>
       <r>   -56.3565     0.0000     0.0000 </r>
       <r>   -56.0650     0.0000     0.0000 </r>
       <r>   -55.7734    -0.0000    -0.0000 </r>
       <r>   -55.4818    -0.0000    -0.0000 </r>
       <r>   -55.1903    -0.0000    -0.0000 </r>
       <r>   -54.8987    -0.0000    -0.0000 </r>
       <r>   -54.6071    -0.0002    -0.0000 </r>
       <r>   -54.3156    -0.5117    -0.1492 </r>
       <r>   -54.0240    -7.0675    -2.2099 </r>
       <r>   -53.7324   292.8985    83.1891 </r>
       <r>   -53.4409   384.1636   195.1979 </r>
       <r>   -53.1493   -10.3439   192.1819 </r>
       <r>   -52.8577    -0.6238   192.0000 </r>
       <r>   -52.5662    -0.0002   192.0000 </r>
       <r>   -52.2746    -0.0000   192.0000 </r>
       <r>   -51.9830     0.0000   192.0000 </r>
       <r>   -51.6915     0.0000   192.0000 </r>
       <r>   -51.3999     0.0000   192.0000 </r>
       <r>   -51.1083     0.0000   192.0000 </r>
       <r>   -50.8168     0.0000   192.0000 </r>
       <r>   -50.5252     0.0000   192.0000 </r>
       <r>   -50.2337     0.0000   192.0000 </r>
       <r>   -49.9421     0.0000   192.0000 </r>
       <r>   -49.6505     0.0000   192.0000 </r>
       <r>   -49.3590     0.0000   192.0000 </r>
       <r>   -49.0674     0.0000   192.0000 </r>
       <r>   -48.7758     0.0000   192.0000 </r>
       <r>   -48.4843     0.0000   192.0000 </r>
       <r>   -48.1927     0.0000   192.0000 </r>
       <r>   -47.9011     0.0000   192.0000 </r>
       <r>   -47.6096     0.0000   192.0000 </r>
       <r>   -47.3180     0.0000   192.0000 </r>
       <r>   -47.0264     0.0000   192.0000 </r>
       <r>   -46.7349     0.0000   192.0000 </r>
       <r>   -46.4433     0.0000   192.0000 </r>
       <r>   -46.1517     0.0000   192.0000 </r>
       <r>   -45.8602     0.0000   192.0000 </r>
       <r>   -45.5686     0.0000   192.0000 </r>
       <r>   -45.2770     0.0000   192.0000 </r>
       <r>   -44.9855     0.0000   192.0000 </r>
       <r>   -44.6939     0.0000   192.0000 </r>
       <r>   -44.4023     0.0000   192.0000 </r>
       <r>   -44.1108     0.0000   192.0000 </r>
       <r>   -43.8192     0.0000   192.0000 </r>
       <r>   -43.5277     0.0000   192.0000 </r>
       <r>   -43.2361     0.0000   192.0000 </r>
       <r>   -42.9445     0.0000   192.0000 </r>
       <r>   -42.6530     0.0000   192.0000 </r>
       <r>   -42.3614     0.0000   192.0000 </r>
       <r>   -42.0698     0.0000   192.0000 </r>
       <r>   -41.7783     0.0000   192.0000 </r>
       <r>   -41.4867     0.0000   192.0000 </r>
       <r>   -41.1951     0.0000   192.0000 </r>
       <r>   -40.9036     0.0000   192.0000 </r>
       <r>   -40.6120     0.0000   192.0000 </r>
       <r>   -40.3204     0.0000   192.0000 </r>
       <r>   -40.0289     0.0000   192.0000 </r>
       <r>   -39.7373     0.0000   192.0000 </r>
       <r>   -39.4457     0.0000   192.0000 </r>
       <r>   -39.1542     0.0000   192.0000 </r>
       <r>   -38.8626     0.0000   192.0000 </r>
       <r>   -38.5710     0.0000   192.0000 </r>
       <r>   -38.2795     0.0000   192.0000 </r>
       <r>   -37.9879     0.0000   192.0000 </r>
       <r>   -37.6963     0.0000   192.0000 </r>
       <r>   -37.4048     0.0000   192.0000 </r>
       <r>   -37.1132     0.0000   192.0000 </r>
       <r>   -36.8217     0.0000   192.0000 </r>
       <r>   -36.5301     0.0000   192.0000 </r>
       <r>   -36.2385     0.0000   192.0000 </r>
       <r>   -35.9470     0.0000   192.0000 </r>
       <r>   -35.6554     0.0000   192.0000 </r>
       <r>   -35.3638     0.0000   192.0000 </r>
       <r>   -35.0723     0.0000   192.0000 </r>
       <r>   -34.7807     0.0000   192.0000 </r>
       <r>   -34.4891     0.0000   192.0000 </r>
       <r>   -34.1976     0.0000   192.0000 </r>
       <r>   -33.9060     0.0000   192.0000 </r>
       <r>   -33.6144     0.0000   192.0000 </r>
       <r>   -33.3229     0.0000   192.0000 </r>
       <r>   -33.0313     0.0000   192.0000 </r>
       <r>   -32.7397     0.0000   192.0000 </r>
       <r>   -32.4482     0.0000   192.0000 </r>
       <r>   -32.1566     0.0000   192.0000 </r>
       <r>   -31.8650     0.0000   192.0000 </r>
       <r>   -31.5735     0.0000   192.0000 </r>
       <r>   -31.2819     0.0000   192.0000 </r>
       <r>   -30.9903     0.0000   192.0000 </r>
       <r>   -30.6988     0.0000   192.0000 </r>
       <r>   -30.4072     0.0000   192.0000 </r>
       <r>   -30.1157     0.0000   192.0000 </r>
       <r>   -29.8241     0.0000   192.0000 </r>
       <r>   -29.5325     0.0000   192.0000 </r>
       <r>   -29.2410     0.0000   192.0000 </r>
       <r>   -28.9494     0.0000   192.0000 </r>
       <r>   -28.6578     0.0000   192.0000 </r>
       <r>   -28.3663     0.0000   192.0000 </r>
       <r>   -28.0747     0.0000   192.0000 </r>
       <r>   -27.7831     0.0000   192.0000 </r>
       <r>   -27.4916     0.0000   192.0000 </r>
       <r>   -27.2000     0.0000   192.0000 </r>
       <r>   -26.9084     0.0000   192.0000 </r>
       <r>   -26.6169     0.0000   192.0000 </r>
       <r>   -26.3253     0.0000   192.0000 </r>
       <r>   -26.0337     0.0000   192.0000 </r>
       <r>   -25.7422     0.0000   192.0000 </r>
       <r>   -25.4506     0.0000   192.0000 </r>
       <r>   -25.1590     0.0000   192.0000 </r>
       <r>   -24.8675     0.0000   192.0000 </r>
       <r>   -24.5759     0.0000   192.0000 </r>
       <r>   -24.2843     0.0000   192.0000 </r>
       <r>   -23.9928     0.0000   192.0000 </r>
       <r>   -23.7012     0.0000   192.0000 </r>
       <r>   -23.4097     0.0000   192.0000 </r>
       <r>   -23.1181     0.0000   192.0000 </r>
       <r>   -22.8265     0.0000   192.0000 </r>
       <r>   -22.5350     0.0000   192.0000 </r>
       <r>   -22.2434     0.0000   192.0000 </r>
       <r>   -21.9518     0.0000   192.0000 </r>
       <r>   -21.6603     0.0000   192.0000 </r>
       <r>   -21.3687     0.0000   192.0000 </r>
       <r>   -21.0771     0.0000   192.0000 </r>
       <r>   -20.7856     0.0000   192.0000 </r>
       <r>   -20.4940     0.0000   192.0000 </r>
       <r>   -20.2024     0.0000   192.0000 </r>
       <r>   -19.9109     0.0000   192.0000 </r>
       <r>   -19.6193     0.0000   192.0000 </r>
       <r>   -19.3277     0.0000   192.0000 </r>
       <r>   -19.0362     0.0000   192.0000 </r>
       <r>   -18.7446     0.0000   192.0000 </r>
       <r>   -18.4530     0.0000   192.0000 </r>
       <r>   -18.1615     0.0000   192.0000 </r>
       <r>   -17.8699     0.0000   192.0000 </r>
       <r>   -17.5784     0.0000   192.0000 </r>
       <r>   -17.2868     0.0000   192.0000 </r>
       <r>   -16.9952     0.0000   192.0000 </r>
       <r>   -16.7037     0.0000   192.0000 </r>
       <r>   -16.4121     0.0000   192.0000 </r>
       <r>   -16.1205     0.0000   192.0000 </r>
       <r>   -15.8290     0.0000   192.0000 </r>
       <r>   -15.5374     0.0000   192.0000 </r>
       <r>   -15.2458     0.0000   192.0000 </r>
       <r>   -14.9543     0.0000   192.0000 </r>
       <r>   -14.6627     0.0000   192.0000 </r>
       <r>   -14.3711     0.0000   192.0000 </r>
       <r>   -14.0796     0.0000   192.0000 </r>
       <r>   -13.7880     0.0000   192.0000 </r>
       <r>   -13.4964     0.0000   192.0000 </r>
       <r>   -13.2049     0.0000   192.0000 </r>
       <r>   -12.9133     0.0000   192.0000 </r>
       <r>   -12.6217     0.0000   192.0000 </r>
       <r>   -12.3302     0.0000   192.0000 </r>
       <r>   -12.0386     0.0000   192.0000 </r>
       <r>   -11.7470     0.0000   192.0000 </r>
       <r>   -11.4555     0.0000   192.0000 </r>
       <r>   -11.1639     0.0000   192.0000 </r>
       <r>   -10.8724     0.0000   192.0000 </r>
       <r>   -10.5808     0.0000   192.0000 </r>
       <r>   -10.2892     0.0000   192.0000 </r>
       <r>    -9.9977     0.0000   192.0000 </r>
       <r>    -9.7061     0.0000   192.0000 </r>
       <r>    -9.4145     0.0000   192.0000 </r>
       <r>    -9.1230     0.0000   192.0000 </r>
       <r>    -8.8314     0.0000   192.0000 </r>
       <r>    -8.5398     0.0000   192.0000 </r>
       <r>    -8.2483     0.0000   192.0000 </r>
       <r>    -7.9567     0.0000   192.0000 </r>
       <r>    -7.6651     0.0000   192.0000 </r>
       <r>    -7.3736     0.0000   192.0000 </r>
       <r>    -7.0820     0.0000   192.0000 </r>
       <r>    -6.7904     0.0000   192.0000 </r>
       <r>    -6.4989     0.0000   192.0000 </r>
       <r>    -6.2073     0.0000   192.0000 </r>
       <r>    -5.9157     0.0000   192.0000 </r>
       <r>    -5.6242     0.0000   192.0000 </r>
       <r>    -5.3326     0.0000   192.0000 </r>
       <r>    -5.0410     0.0000   192.0000 </r>
       <r>    -4.7495     0.0000   192.0000 </r>
       <r>    -4.4579     0.0000   192.0000 </r>
       <r>    -4.1664     0.0000   192.0000 </r>
       <r>    -3.8748     0.0000   192.0000 </r>
       <r>    -3.5832     0.0000   192.0000 </r>
       <r>    -3.2917     0.0000   192.0000 </r>
       <r>    -3.0001     0.0000   192.0000 </r>
       <r>    -2.7085     0.0000   192.0000 </r>
       <r>    -2.4170     0.0000   192.0000 </r>
       <r>    -2.1254    -0.0000   192.0000 </r>
       <r>    -1.8338    -0.0000   192.0000 </r>
       <r>    -1.5423    -0.0000   192.0000 </r>
       <r>    -1.2507    -0.0000   192.0000 </r>
       <r>    -0.9591    -0.0000   192.0000 </r>
       <r>    -0.6676    -0.0045   191.9987 </r>
       <r>    -0.3760     0.0491   192.0130 </r>
       <r>    -0.0844     0.6929   192.2150 </r>
       <r>     0.2071     1.1943   192.5633 </r>
       <r>     0.4987     1.8466   193.1017 </r>
       <r>     0.7903     1.7480   193.6113 </r>
       <r>     1.0818     2.6600   194.3869 </r>
       <r>     1.3734     2.2019   195.0289 </r>
       <r>     1.6650     3.6569   196.0951 </r>
       <r>     1.9565     2.6787   196.8761 </r>
       <r>     2.2481     4.0209   198.0485 </r>
       <r>     2.5396     4.3004   199.3023 </r>
       <r>     2.8312     3.9491   200.4537 </r>
       <r>     3.1228     6.0814   202.2269 </r>
       <r>     3.4143     5.1336   203.7237 </r>
       <r>     3.7059     7.2090   205.8255 </r>
       <r>     3.9975     9.1314   208.4879 </r>
       <r>     4.2890     9.7272   211.3240 </r>
       <r>     4.5806    23.4120   218.1502 </r>
       <r>     4.8722    27.2634   226.0992 </r>
       <r>     5.1637    31.0278   235.1458 </r>
       <r>     5.4553    36.0574   245.6589 </r>
       <r>     5.7469    48.4421   259.7829 </r>
       <r>     6.0384    46.9844   273.4820 </r>
       <r>     6.3300    43.9213   286.2879 </r>
       <r>     6.6216    41.9532   298.5200 </r>
       <r>     6.9131    54.1312   314.3028 </r>
       <r>     7.2047    62.0072   332.3819 </r>
       <r>     7.4963    70.5337   352.9471 </r>
       <r>     7.7878    77.5797   375.5666 </r>
       <r>     8.0794    68.6826   395.5921 </r>
       <r>     8.3710    51.2895   410.5463 </r>
       <r>     8.6625    62.7778   428.8501 </r>
       <r>     8.9541    67.0153   448.3895 </r>
       <r>     9.2456    58.7696   465.5247 </r>
       <r>     9.5372    62.6449   483.7897 </r>
       <r>     9.8288    94.4207   511.3195 </r>
       <r>    10.1203    61.8459   529.3516 </r>
       <r>    10.4119    13.2277   533.2083 </r>
       <r>    10.7035     7.4537   535.3816 </r>
       <r>    10.9950    13.7941   539.4035 </r>
       <r>    11.2866     7.1213   541.4798 </r>
       <r>    11.5782    10.0044   544.3967 </r>
       <r>    11.8697     9.1463   547.0635 </r>
       <r>    12.1613     7.6310   549.2884 </r>
       <r>    12.4529     9.5505   552.0730 </r>
       <r>    12.7444     8.6722   554.6015 </r>
       <r>    13.0360     5.4830   556.2001 </r>
       <r>    13.3276     8.2725   558.6121 </r>
       <r>    13.6191     8.8498   561.1924 </r>
       <r>    13.9107     6.0775   562.9644 </r>
       <r>    14.2023     4.4736   564.2688 </r>
       <r>    14.4938     6.2444   566.0894 </r>
       <r>    14.7854     7.0755   568.1524 </r>
       <r>    15.0770     4.6213   569.4998 </r>
       <r>    15.3685     3.7447   570.5916 </r>
       <r>    15.6601     3.8821   571.7235 </r>
       <r>    15.9516     4.6930   573.0918 </r>
       <r>    16.2432     3.0954   573.9943 </r>
       <r>    16.5348     1.4511   574.4174 </r>
       <r>    16.8263     4.2883   575.6677 </r>
       <r>    17.1179     9.7143   578.5001 </r>
       <r>    17.4095    12.2878   582.0828 </r>
       <r>    17.7010     8.6970   584.6185 </r>
       <r>    17.9926     9.3576   587.3469 </r>
       <r>    18.2842     7.4756   589.5265 </r>
       <r>    18.5757     8.8898   592.1184 </r>
       <r>    18.8673     8.3063   594.5403 </r>
       <r>    19.1589     6.4474   596.4201 </r>
       <r>    19.4504     6.3471   598.2707 </r>
       <r>    19.7420     6.0989   600.0489 </r>
       <r>    20.0336     6.5489   601.9584 </r>
       <r>    20.3251     9.1781   604.6344 </r>
       <r>    20.6167     7.5870   606.8465 </r>
       <r>    20.9083     9.0229   609.4772 </r>
       <r>    21.1998     8.7045   612.0152 </r>
       <r>    21.4914    13.2988   615.8927 </r>
       <r>    21.7829     7.5677   618.0991 </r>
       <r>    22.0745    11.9437   621.5815 </r>
       <r>    22.3661    12.7220   625.2908 </r>
       <r>    22.6576    10.0367   628.2171 </r>
       <r>    22.9492    10.7794   631.3600 </r>
       <r>    23.2408    10.1077   634.3071 </r>
       <r>    23.5323    10.8597   637.4734 </r>
       <r>    23.8239    11.6072   640.8577 </r>
       <r>    24.1155    12.8829   644.6139 </r>
       <r>    24.4070     7.9437   646.9300 </r>
       <r>    24.6986     3.2853   647.8878 </r>
       <r>    24.9902     0.4008   648.0047 </r>
       <r>    25.2817    -0.0153   648.0003 </r>
       <r>    25.5733    -0.0009   648.0000 </r>
       <r>    25.8649    -0.0000   648.0000 </r>
       <r>    26.1564    -0.0000   648.0000 </r>
       <r>    26.4480     0.0000   648.0000 </r>
       <r>    26.7396     0.0000   648.0000 </r>
       <r>    27.0311     0.0000   648.0000 </r>
       <r>    27.3227     0.0000   648.0000 </r>
       <r>    27.6143     0.0000   648.0000 </r>
       <r>    27.9058     0.0000   648.0000 </r>
       <r>    28.1974     0.0000   648.0000 </r>
       <r>    28.4889     0.0000   648.0000 </r>
       <r>    28.7805     0.0000   648.0000 </r>
      </set>
     </set>
    </array>
   </total>
  </dos>
 </calculation>
 <structure name="finalpos" >
  <crystal>
   <varray name="basis" >
    <v>       0.00000000       6.73275000       6.73275000 </v>
    <v>       6.73275000       0.00000000       6.73275000 </v>
    <v>       6.73275000       6.73275000       0.00000000 </v>
   </varray>
   <i name="volume">    610.39007227 </i>
   <varray name="rec_basis" >
    <v>      -0.07426386       0.07426386       0.07426386 </v>
    <v>       0.07426386      -0.07426386       0.07426386 </v>
    <v>       0.07426386       0.07426386      -0.07426386 </v>
   </varray>
  </crystal>
  <varray name="positions" >
   <v>       0.00111396      -0.00111396      -0.00111396 </v>
   <v>       0.00000000       0.00000000       0.25000000 </v>
   <v>       0.00000000       0.00000000       0.50000000 </v>
   <v>       0.00000000       0.00000000       0.75000000 </v>
   <v>       0.00000000       0.25000000       0.00000000 </v>
   <v>       0.00000000       0.25000000       0.25000000 </v>
   <v>       0.00000000       0.25000000       0.50000000 </v>
   <v>       0.00000000       0.25000000       0.75000000 </v>
   <v>       0.00000000       0.50000000       0.00000000 </v>
   <v>       0.00000000       0.50000000       0.25000000 </v>
   <v>       0.00000000       0.50000000       0.50000000 </v>
   <v>       0.00000000       0.50000000       0.75000000 </v>
   <v>       0.00000000       0.75000000       0.00000000 </v>
   <v>       0.00000000       0.75000000       0.25000000 </v>
   <v>       0.00000000       0.75000000       0.50000000 </v>
   <v>       0.00000000       0.75000000       0.75000000 </v>
   <v>       0.25000000       0.00000000       0.00000000 </v>
   <v>       0.25000000       0.00000000       0.25000000 </v>
   <v>       0.25000000       0.00000000       0.50000000 </v>
   <v>       0.25000000       0.00000000       0.75000000 </v>
   <v>       0.25000000       0.25000000       0.00000000 </v>
   <v>       0.25000000       0.25000000       0.25000000 </v>
   <v>       0.25000000       0.25000000       0.50000000 </v>
   <v>       0.25000000       0.25000000       0.75000000 </v>
   <v>       0.25000000       0.50000000       0.00000000 </v>
   <v>       0.25000000       0.50000000       0.25000000 </v>
   <v>       0.25000000       0.50000000       0.50000000 </v>
   <v>       0.25000000       0.50000000       0.75000000 </v>
   <v>       0.25000000       0.75000000       0.00000000 </v>
   <v>       0.25000000       0.75000000       0.25000000 </v>
   <v>       0.25000000       0.75000000       0.50000000 </v>
   <v>       0.25000000       0.75000000       0.75000000 </v>
   <v>       0.50000000       0.00000000       0.00000000 </v>
   <v>       0.50000000       0.00000000       0.25000000 </v>
   <v>       0.50000000       0.00000000       0.50000000 </v>
   <v>       0.50000000       0.00000000       0.75000000 </v>
   <v>       0.50000000       0.25000000       0.00000000 </v>
   <v>       0.50000000       0.25000000       0.25000000 </v>
   <v>       0.50000000       0.25000000       0.50000000 </v>
   <v>       0.50000000       0.25000000       0.75000000 </v>
   <v>       0.50000000       0.50000000       0.00000000 </v>
   <v>       0.50000000       0.50000000       0.25000000 </v>
   <v>       0.50000000       0.50000000       0.50000000 </v>
   <v>       0.50000000       0.50000000       0.75000000 </v>
   <v>       0.50000000       0.75000000       0.00000000 </v>
   <v>       0.50000000       0.75000000       0.25000000 </v>
   <v>       0.50000000       0.75000000       0.50000000 </v>
   <v>       0.50000000       0.75000000       0.75000000 </v>
   <v>       0.75000000       0.00000000       0.00000000 </v>
   <v>       0.75000000       0.00000000       0.25000000 </v>
   <v>       0.75000000       0.00000000       0.50000000 </v>
   <v>       0.75000000       0.00000000       0.75000000 </v>
   <v>       0.75000000       0.25000000       0.00000000 </v>
   <v>       0.75000000       0.25000000       0.25000000 </v>
   <v>       0.75000000       0.25000000       0.50000000 </v>
   <v>       0.75000000       0.25000000       0.75000000 </v>
   <v>       0.75000000       0.50000000       0.00000000 </v>
   <v>       0.75000000       0.50000000       0.25000000 </v>
   <v>       0.75000000       0.50000000       0.50000000 </v>
   <v>       0.75000000       0.50000000       0.75000000 </v>
   <v>       0.75000000       0.75000000       0.00000000 </v>
   <v>       0.75000000       0.75000000       0.25000000 </v>
   <v>       0.75000000       0.75000000       0.50000000 </v>
   <v>       0.75000000       0.75000000       0.75000000 </v>
  </varray>
 </structure>
</modeling>
