 vasp.5.4.1 05Feb16 (build Oct 12 2016 17:31:35) complex                        
  
 executed on           IFC91_ompi date 2020.09.07  22:42:49
 running on    4 total cores
 distrk:  each k-point on    4 cores,    1 groups
 distr:  one band on NCORES_PER_BAND=   1 cores,    4 groups


--------------------------------------------------------------------------------------------------------


 INCAR:
 POTCAR:   PAW_PBE Ni_pv 06Sep2000                
 POTCAR:   PAW_PBE Ni_pv 06Sep2000                
  local pseudopotential read in
  partial core-charges read in
  atomic valenz-charges read in
  non local Contribution for L=           1  read in
    real space projection operators read in
  non local Contribution for L=           1  read in
    real space projection operators read in
  non local Contribution for L=           2  read in
    real space projection operators read in
  non local Contribution for L=           2  read in
    real space projection operators read in
  non local Contribution for L=           0  read in
    real space projection operators read in
  non local Contribution for L=           0  read in
    real space projection operators read in
    PAW grid and wavefunctions read in
 
   number of l-projection  operators is LMAX  =           6
   number of lm-projection operators is LMMAX =          18
 
 Optimization of the real space projectors (new method)

 maximal supplied QI-value         = 18.90
 optimisation between [QCUT,QGAM] = [ 10.96, 27.40] = [ 33.64,210.25] Ry 
 Optimized for a Real-space Cutoff    1.19 Angstroem

   l    n(q)    QCUT    max X(q) W(low)/X(q) W(high)/X(q)  e(spline) 
   1      9    10.960     3.231    0.64E-06    0.38E-05    0.29E-07
   1      9    10.960     4.241    0.27E-04    0.99E-05    0.15E-06
   2      9    10.960     3.566    0.37E-04    0.13E-04    0.55E-07
   2      9    10.960    20.429    0.20E-03    0.15E-04    0.28E-06
   0     10    10.960    19.799    0.13E-04    0.31E-05    0.11E-07
   0     10    10.960    52.283    0.57E-04    0.26E-04    0.65E-07
 PAW_PBE Ni_pv 06Sep2000                :
 energy of atom  1       EATOM=-3500.3496
 kinetic energy error for atom=    0.0894 (will be added to EATOM!!)
 
 
 POSCAR: Supercell by Yi Wang                    
  positions in direct lattice
  No initial velocities read in
 exchange correlation table for  LEXCH =        8
   RHO(1)=    0.500       N(1)  =     2000
   RHO(2)=  100.500       N(2)  =     4000
 


--------------------------------------------------------------------------------------------------------


 ion  position               nearest neighbor table
   1  0.000  0.000  0.000-   2 2.38   4 2.38   5 2.38   8 2.38  13 2.38  14 2.38  17 2.38  20 2.38
                            29 2.38  49 2.38  50 2.38  53 2.38
   2  0.000  0.000  0.250-   1 2.38   3 2.38   5 2.38   6 2.38  14 2.38  15 2.38  17 2.38  18 2.38
                            30 2.38  50 2.38  51 2.38  54 2.38
   3  0.000  0.000  0.500-   2 2.38   4 2.38   6 2.38   7 2.38  15 2.38  16 2.38  18 2.38  19 2.38
                            31 2.38  51 2.38  52 2.38  55 2.38
   4  0.000  0.000  0.750-   1 2.38   3 2.38   7 2.38   8 2.38  13 2.38  16 2.38  19 2.38  20 2.38
                            32 2.38  49 2.38  52 2.38  56 2.38
   5  0.000  0.250  0.000-   1 2.38   2 2.38   6 2.38   8 2.38   9 2.38  12 2.38  17 2.38  21 2.38
                            24 2.38  53 2.38  54 2.38  57 2.38
   6  0.000  0.250  0.250-   2 2.38   3 2.38   5 2.38   7 2.38   9 2.38  10 2.38  18 2.38  21 2.38
                            22 2.38  54 2.38  55 2.38  58 2.38
   7  0.000  0.250  0.500-   3 2.38   4 2.38   6 2.38   8 2.38  10 2.38  11 2.38  19 2.38  22 2.38
                            23 2.38  55 2.38  56 2.38  59 2.38
   8  0.000  0.250  0.750-   1 2.38   4 2.38   5 2.38   7 2.38  11 2.38  12 2.38  20 2.38  23 2.38
                            24 2.38  53 2.38  56 2.38  60 2.38
   9  0.000  0.500  0.000-   5 2.38   6 2.38  10 2.38  12 2.38  13 2.38  16 2.38  21 2.38  25 2.38
                            28 2.38  57 2.38  58 2.38  61 2.38
  10  0.000  0.500  0.250-   6 2.38   7 2.38   9 2.38  11 2.38  13 2.38  14 2.38  22 2.38  25 2.38
                            26 2.38  58 2.38  59 2.38  62 2.38
  11  0.000  0.500  0.500-   7 2.38   8 2.38  10 2.38  12 2.38  14 2.38  15 2.38  23 2.38  26 2.38
                            27 2.38  59 2.38  60 2.38  63 2.38
  12  0.000  0.500  0.750-   5 2.38   8 2.38   9 2.38  11 2.38  15 2.38  16 2.38  24 2.38  27 2.38
                            28 2.38  57 2.38  60 2.38  64 2.38
  13  0.000  0.750  0.000-   1 2.38   4 2.38   9 2.38  10 2.38  14 2.38  16 2.38  25 2.38  29 2.38
                            32 2.38  49 2.38  61 2.38  62 2.38
  14  0.000  0.750  0.250-   1 2.38   2 2.38  10 2.38  11 2.38  13 2.38  15 2.38  26 2.38  29 2.38
                            30 2.38  50 2.38  62 2.38  63 2.38
  15  0.000  0.750  0.500-   2 2.38   3 2.38  11 2.38  12 2.38  14 2.38  16 2.38  27 2.38  30 2.38
                            31 2.38  51 2.38  63 2.38  64 2.38
  16  0.000  0.750  0.750-   3 2.38   4 2.38   9 2.38  12 2.38  13 2.38  15 2.38  28 2.38  31 2.38
                            32 2.38  52 2.38  61 2.38  64 2.38
  17  0.250  0.000  0.000-   1 2.38   2 2.38   5 2.38  18 2.38  20 2.38  21 2.38  24 2.38  29 2.38
                            30 2.38  33 2.38  36 2.38  45 2.38
  18  0.250  0.000  0.250-   2 2.38   3 2.38   6 2.38  17 2.38  19 2.38  21 2.38  22 2.38  30 2.38
                            31 2.38  33 2.38  34 2.38  46 2.38
  19  0.250  0.000  0.500-   3 2.38   4 2.38   7 2.38  18 2.38  20 2.38  22 2.38  23 2.38  31 2.38
                            32 2.38  34 2.38  35 2.38  47 2.38
  20  0.250  0.000  0.750-   1 2.38   4 2.38   8 2.38  17 2.38  19 2.38  23 2.38  24 2.38  29 2.38
                            32 2.38  35 2.38  36 2.38  48 2.38
  21  0.250  0.250  0.000-   5 2.38   6 2.38   9 2.38  17 2.38  18 2.38  22 2.38  24 2.38  25 2.38
                            28 2.38  33 2.38  37 2.38  40 2.38
  22  0.250  0.250  0.250-   6 2.38   7 2.38  10 2.38  18 2.38  19 2.38  21 2.38  23 2.38  25 2.38
                            26 2.38  34 2.38  37 2.38  38 2.38
  23  0.250  0.250  0.500-   7 2.38   8 2.38  11 2.38  19 2.38  20 2.38  22 2.38  24 2.38  26 2.38
                            27 2.38  35 2.38  38 2.38  39 2.38
  24  0.250  0.250  0.750-   5 2.38   8 2.38  12 2.38  17 2.38  20 2.38  21 2.38  23 2.38  27 2.38
                            28 2.38  36 2.38  39 2.38  40 2.38
  25  0.250  0.500  0.000-   9 2.38  10 2.38  13 2.38  21 2.38  22 2.38  26 2.38  28 2.38  29 2.38
                            32 2.38  37 2.38  41 2.38  44 2.38
  26  0.250  0.500  0.250-  10 2.38  11 2.38  14 2.38  22 2.38  23 2.38  25 2.38  27 2.38  29 2.38
                            30 2.38  38 2.38  41 2.38  42 2.38
  27  0.250  0.500  0.500-  11 2.38  12 2.38  15 2.38  23 2.38  24 2.38  26 2.38  28 2.38  30 2.38
                            31 2.38  39 2.38  42 2.38  43 2.38
  28  0.250  0.500  0.750-   9 2.38  12 2.38  16 2.38  21 2.38  24 2.38  25 2.38  27 2.38  31 2.38
                            32 2.38  40 2.38  43 2.38  44 2.38
  29  0.250  0.750  0.000-   1 2.38  13 2.38  14 2.38  17 2.38  20 2.38  25 2.38  26 2.38  30 2.38
                            32 2.38  41 2.38  45 2.38  48 2.38
  30  0.250  0.750  0.250-   2 2.38  14 2.38  15 2.38  17 2.38  18 2.38  26 2.38  27 2.38  29 2.38
                            31 2.38  42 2.38  45 2.38  46 2.38
  31  0.250  0.750  0.500-   3 2.38  15 2.38  16 2.38  18 2.38  19 2.38  27 2.38  28 2.38  30 2.38
                            32 2.38  43 2.38  46 2.38  47 2.38
  32  0.250  0.750  0.750-   4 2.38  13 2.38  16 2.38  19 2.38  20 2.38  25 2.38  28 2.38  29 2.38
                            31 2.38  44 2.38  47 2.38  48 2.38
  33  0.500  0.000  0.000-  17 2.38  18 2.38  21 2.38  34 2.38  36 2.38  37 2.38  40 2.38  45 2.38
                            46 2.38  49 2.38  52 2.38  61 2.38
  34  0.500  0.000  0.250-  18 2.38  19 2.38  22 2.38  33 2.38  35 2.38  37 2.38  38 2.38  46 2.38
                            47 2.38  49 2.38  50 2.38  62 2.38
  35  0.500  0.000  0.500-  19 2.38  20 2.38  23 2.38  34 2.38  36 2.38  38 2.38  39 2.38  47 2.38
                            48 2.38  50 2.38  51 2.38  63 2.38
  36  0.500  0.000  0.750-  17 2.38  20 2.38  24 2.38  33 2.38  35 2.38  39 2.38  40 2.38  45 2.38
                            48 2.38  51 2.38  52 2.38  64 2.38
  37  0.500  0.250  0.000-  21 2.38  22 2.38  25 2.38  33 2.38  34 2.38  38 2.38  40 2.38  41 2.38
                            44 2.38  49 2.38  53 2.38  56 2.38
  38  0.500  0.250  0.250-  22 2.38  23 2.38  26 2.38  34 2.38  35 2.38  37 2.38  39 2.38  41 2.38
                            42 2.38  50 2.38  53 2.38  54 2.38
  39  0.500  0.250  0.500-  23 2.38  24 2.38  27 2.38  35 2.38  36 2.38  38 2.38  40 2.38  42 2.38
                            43 2.38  51 2.38  54 2.38  55 2.38
  40  0.500  0.250  0.750-  21 2.38  24 2.38  28 2.38  33 2.38  36 2.38  37 2.38  39 2.38  43 2.38
                            44 2.38  52 2.38  55 2.38  56 2.38
  41  0.500  0.500  0.000-  25 2.38  26 2.38  29 2.38  37 2.38  38 2.38  42 2.38  44 2.38  45 2.38
                            48 2.38  53 2.38  57 2.38  60 2.38
  42  0.500  0.500  0.250-  26 2.38  27 2.38  30 2.38  38 2.38  39 2.38  41 2.38  43 2.38  45 2.38
                            46 2.38  54 2.38  57 2.38  58 2.38
  43  0.500  0.500  0.500-  27 2.38  28 2.38  31 2.38  39 2.38  40 2.38  42 2.38  44 2.38  46 2.38
                            47 2.38  55 2.38  58 2.38  59 2.38
  44  0.500  0.500  0.750-  25 2.38  28 2.38  32 2.38  37 2.38  40 2.38  41 2.38  43 2.38  47 2.38
                            48 2.38  56 2.38  59 2.38  60 2.38
  45  0.500  0.750  0.000-  17 2.38  29 2.38  30 2.38  33 2.38  36 2.38  41 2.38  42 2.38  46 2.38
                            48 2.38  57 2.38  61 2.38  64 2.38
  46  0.500  0.750  0.250-  18 2.38  30 2.38  31 2.38  33 2.38  34 2.38  42 2.38  43 2.38  45 2.38
                            47 2.38  58 2.38  61 2.38  62 2.38
  47  0.500  0.750  0.500-  19 2.38  31 2.38  32 2.38  34 2.38  35 2.38  43 2.38  44 2.38  46 2.38
                            48 2.38  59 2.38  62 2.38  63 2.38
  48  0.500  0.750  0.750-  20 2.38  29 2.38  32 2.38  35 2.38  36 2.38  41 2.38  44 2.38  45 2.38
                            47 2.38  60 2.38  63 2.38  64 2.38
  49  0.750  0.000  0.000-   1 2.38   4 2.38  13 2.38  33 2.38  34 2.38  37 2.38  50 2.38  52 2.38
                            53 2.38  56 2.38  61 2.38  62 2.38
  50  0.750  0.000  0.250-   1 2.38   2 2.38  14 2.38  34 2.38  35 2.38  38 2.38  49 2.38  51 2.38
                            53 2.38  54 2.38  62 2.38  63 2.38
  51  0.750  0.000  0.500-   2 2.38   3 2.38  15 2.38  35 2.38  36 2.38  39 2.38  50 2.38  52 2.38
                            54 2.38  55 2.38  63 2.38  64 2.38
  52  0.750  0.000  0.750-   3 2.38   4 2.38  16 2.38  33 2.38  36 2.38  40 2.38  49 2.38  51 2.38
                            55 2.38  56 2.38  61 2.38  64 2.38
  53  0.750  0.250  0.000-   1 2.38   5 2.38   8 2.38  37 2.38  38 2.38  41 2.38  49 2.38  50 2.38
                            54 2.38  56 2.38  57 2.38  60 2.38
  54  0.750  0.250  0.250-   2 2.38   5 2.38   6 2.38  38 2.38  39 2.38  42 2.38  50 2.38  51 2.38
                            53 2.38  55 2.38  57 2.38  58 2.38
  55  0.750  0.250  0.500-   3 2.38   6 2.38   7 2.38  39 2.38  40 2.38  43 2.38  51 2.38  52 2.38
                            54 2.38  56 2.38  58 2.38  59 2.38
  56  0.750  0.250  0.750-   4 2.38   7 2.38   8 2.38  37 2.38  40 2.38  44 2.38  49 2.38  52 2.38
                            53 2.38  55 2.38  59 2.38  60 2.38
  57  0.750  0.500  0.000-   5 2.38   9 2.38  12 2.38  41 2.38  42 2.38  45 2.38  53 2.38  54 2.38
                            58 2.38  60 2.38  61 2.38  64 2.38
  58  0.750  0.500  0.250-   6 2.38   9 2.38  10 2.38  42 2.38  43 2.38  46 2.38  54 2.38  55 2.38
                            57 2.38  59 2.38  61 2.38  62 2.38
  59  0.750  0.500  0.500-   7 2.38  10 2.38  11 2.38  43 2.38  44 2.38  47 2.38  55 2.38  56 2.38
                            58 2.38  60 2.38  62 2.38  63 2.38
  60  0.750  0.500  0.750-   8 2.38  11 2.38  12 2.38  41 2.38  44 2.38  48 2.38  53 2.38  56 2.38
                            57 2.38  59 2.38  63 2.38  64 2.38
  61  0.750  0.750  0.000-   9 2.38  13 2.38  16 2.38  33 2.38  45 2.38  46 2.38  49 2.38  52 2.38
                            57 2.38  58 2.38  62 2.38  64 2.38
  62  0.750  0.750  0.250-  10 2.38  13 2.38  14 2.38  34 2.38  46 2.38  47 2.38  49 2.38  50 2.38
                            58 2.38  59 2.38  61 2.38  63 2.38
  63  0.750  0.750  0.500-  11 2.38  14 2.38  15 2.38  35 2.38  47 2.38  48 2.38  50 2.38  51 2.38
                            59 2.38  60 2.38  62 2.38  64 2.38
  64  0.750  0.750  0.750-  12 2.38  15 2.38  16 2.38  36 2.38  45 2.38  48 2.38  51 2.38  52 2.38
                            57 2.38  60 2.38  61 2.38  63 2.38
 
  LATTYP: Found a face centered cubic cell.
 ALAT       =    13.4655000000
  
  Lattice vectors:
  
 A1 = (   0.0000000000,   6.7327500000,   6.7327500000)
 A2 = (   6.7327500000,   0.0000000000,   6.7327500000)
 A3 = (   6.7327500000,   6.7327500000,   0.0000000000)


Analysis of symmetry for initial positions (statically):
=====================================================================
 Subroutine PRICEL returns following result:
 
  LATTYP: Found a face centered cubic cell.
 ALAT       =     3.3663750000
  
  Lattice vectors:
  
 A1 = (   0.0000000000,   1.6831875000,   1.6831875000)
 A2 = (   1.6831875000,   0.0000000000,   1.6831875000)
 A3 = (   1.6831875000,   1.6831875000,   0.0000000000)
 
  64 primitive cells build up your supercell.
 

 Routine SETGRP: Setting up the symmetry group for a 
 face centered cubic supercell.


 Subroutine GETGRP returns: Found 48 space group operations
 (whereof 48 operations were pure point group operations)
 out of a pool of 48 trial point group operations.


The static configuration has the point symmetry O_h .


Analysis of symmetry for dynamics (positions and initial velocities):
=====================================================================
 Subroutine PRICEL returns following result:
 
  LATTYP: Found a face centered cubic cell.
 ALAT       =     3.3663750000
  
  Lattice vectors:
  
 A1 = (   0.0000000000,   1.6831875000,   1.6831875000)
 A2 = (   1.6831875000,   0.0000000000,   1.6831875000)
 A3 = (   1.6831875000,   1.6831875000,   0.0000000000)
 
  64 primitive cells build up your supercell.
 

 Routine SETGRP: Setting up the symmetry group for a 
 face centered cubic supercell.


 Subroutine GETGRP returns: Found 48 space group operations
 (whereof 48 operations were pure point group operations)
 out of a pool of 48 trial point group operations.


The dynamic configuration has the point symmetry O_h .


Analysis of structural, dynamic, and magnetic symmetry:
=====================================================================
 Subroutine PRICEL returns following result:
 
  LATTYP: Found a face centered cubic cell.
 ALAT       =     3.3663750000
  
  Lattice vectors:
  
 A1 = (   0.0000000000,   1.6831875000,   1.6831875000)
 A2 = (   1.6831875000,   0.0000000000,   1.6831875000)
 A3 = (   1.6831875000,   1.6831875000,   0.0000000000)
 
  64 primitive cells build up your supercell.
 

 Routine SETGRP: Setting up the symmetry group for a 
 face centered cubic supercell.


 Subroutine GETGRP returns: Found 48 space group operations
 (whereof 48 operations were pure point group operations)
 out of a pool of 48 trial point group operations.


The magnetic configuration has the point symmetry O_h .


 Subroutine INISYM returns: Found 48 space group operations
 (whereof 48 operations are pure point group operations),
 and found    64 'primitive' translations

 
 
 KPOINTS: Zr 15x15x15                             

Automatic generation of k-mesh.
Space group operators:
 irot       det(A)        alpha          n_x          n_y          n_z        tau_x        tau_y        tau_z
    1     1.000000     0.000000     1.000000     0.000000     0.000000     0.000000     0.000000     0.000000
    2    -1.000000     0.000000     1.000000     0.000000     0.000000     0.000000     0.000000     0.000000
    3     1.000000   120.000000    -0.577350    -0.577350    -0.577350     0.000000     0.000000     0.000000
    4    -1.000000   120.000000    -0.577350    -0.577350    -0.577350     0.000000     0.000000     0.000000
    5     1.000000   120.000000     0.577350     0.577350     0.577350     0.000000     0.000000     0.000000
    6    -1.000000   120.000000     0.577350     0.577350     0.577350     0.000000     0.000000     0.000000
    7     1.000000    90.000000     0.000000     0.000000    -1.000000     0.000000     0.000000     0.000000
    8    -1.000000    90.000000     0.000000     0.000000    -1.000000     0.000000     0.000000     0.000000
    9     1.000000   180.000000     0.000000     0.707107     0.707107     0.000000     0.000000     0.000000
   10    -1.000000   180.000000     0.000000     0.707107     0.707107     0.000000     0.000000     0.000000
   11     1.000000    90.000000     0.000000     1.000000     0.000000     0.000000     0.000000     0.000000
   12    -1.000000    90.000000     0.000000     1.000000     0.000000     0.000000     0.000000     0.000000
   13     1.000000   180.000000     0.000000     0.000000     1.000000     0.000000     0.000000     0.000000
   14    -1.000000   180.000000     0.000000     0.000000     1.000000     0.000000     0.000000     0.000000
   15     1.000000   120.000000    -0.577350     0.577350     0.577350     0.000000     0.000000     0.000000
   16    -1.000000   120.000000    -0.577350     0.577350     0.577350     0.000000     0.000000     0.000000
   17     1.000000   120.000000    -0.577350     0.577350    -0.577350     0.000000     0.000000     0.000000
   18    -1.000000   120.000000    -0.577350     0.577350    -0.577350     0.000000     0.000000     0.000000
   19     1.000000    90.000000     0.000000     0.000000     1.000000     0.000000     0.000000     0.000000
   20    -1.000000    90.000000     0.000000     0.000000     1.000000     0.000000     0.000000     0.000000
   21     1.000000    90.000000    -1.000000     0.000000     0.000000     0.000000     0.000000     0.000000
   22    -1.000000    90.000000    -1.000000     0.000000     0.000000     0.000000     0.000000     0.000000
   23     1.000000   180.000000     0.707107     0.000000     0.707107     0.000000     0.000000     0.000000
   24    -1.000000   180.000000     0.707107     0.000000     0.707107     0.000000     0.000000     0.000000
   25     1.000000   120.000000     0.577350    -0.577350     0.577350     0.000000     0.000000     0.000000
   26    -1.000000   120.000000     0.577350    -0.577350     0.577350     0.000000     0.000000     0.000000
   27     1.000000   120.000000    -0.577350    -0.577350     0.577350     0.000000     0.000000     0.000000
   28    -1.000000   120.000000    -0.577350    -0.577350     0.577350     0.000000     0.000000     0.000000
   29     1.000000   180.000000     1.000000     0.000000     0.000000     0.000000     0.000000     0.000000
   30    -1.000000   180.000000     1.000000     0.000000     0.000000     0.000000     0.000000     0.000000
   31     1.000000    90.000000     0.000000    -1.000000     0.000000     0.000000     0.000000     0.000000
   32    -1.000000    90.000000     0.000000    -1.000000     0.000000     0.000000     0.000000     0.000000
   33     1.000000   180.000000     0.707107     0.707107     0.000000     0.000000     0.000000     0.000000
   34    -1.000000   180.000000     0.707107     0.707107     0.000000     0.000000     0.000000     0.000000
   35     1.000000    90.000000     1.000000     0.000000     0.000000     0.000000     0.000000     0.000000
   36    -1.000000    90.000000     1.000000     0.000000     0.000000     0.000000     0.000000     0.000000
   37     1.000000   120.000000     0.577350    -0.577350    -0.577350     0.000000     0.000000     0.000000
   38    -1.000000   120.000000     0.577350    -0.577350    -0.577350     0.000000     0.000000     0.000000
   39     1.000000   180.000000     0.000000     1.000000     0.000000     0.000000     0.000000     0.000000
   40    -1.000000   180.000000     0.000000     1.000000     0.000000     0.000000     0.000000     0.000000
   41     1.000000   120.000000     0.577350     0.577350    -0.577350     0.000000     0.000000     0.000000
   42    -1.000000   120.000000     0.577350     0.577350    -0.577350     0.000000     0.000000     0.000000
   43     1.000000   180.000000     0.000000    -0.707107     0.707107     0.000000     0.000000     0.000000
   44    -1.000000   180.000000     0.000000    -0.707107     0.707107     0.000000     0.000000     0.000000
   45     1.000000   180.000000     0.707107    -0.707107     0.000000     0.000000     0.000000     0.000000
   46    -1.000000   180.000000     0.707107    -0.707107     0.000000     0.000000     0.000000     0.000000
   47     1.000000   180.000000     0.707107     0.000000    -0.707107     0.000000     0.000000     0.000000
   48    -1.000000   180.000000     0.707107     0.000000    -0.707107     0.000000     0.000000     0.000000
 
 Subroutine IBZKPT returns following result:
 ===========================================
 
 Found      4 irreducible k-points:
 
 Following reciprocal coordinates:
            Coordinates               Weight
  0.000000  0.000000  0.000000      1.000000
  0.333333  0.000000  0.000000      8.000000
  0.333333  0.333333  0.000000      6.000000
 -0.333333  0.333333  0.000000     12.000000
 
 Following cartesian coordinates:
            Coordinates               Weight
  0.000000  0.000000  0.000000      1.000000
 -0.024755  0.024755  0.024755      8.000000
  0.000000  0.000000  0.049509      6.000000
  0.049509 -0.049509  0.000000     12.000000
 
 
 Subroutine IBZKPT_HF returns following result:
 ==============================================
 
 Found     27 k-points in 1st BZ
 the following     27 k-points will be used (e.g. in the exchange kernel)
 Following reciprocal coordinates:   # in IRBZ
  0.000000  0.000000  0.000000    0.03703704   1 t-inv F
  0.333333  0.000000  0.000000    0.03703704   2 t-inv F
  0.333333  0.333333  0.000000    0.03703704   3 t-inv F
 -0.333333  0.333333  0.000000    0.03703704   4 t-inv F
 -0.333333  0.000000  0.000000    0.03703704   2 t-inv F
  0.000000  0.333333  0.000000    0.03703704   2 t-inv F
  0.000000 -0.333333  0.000000    0.03703704   2 t-inv F
  0.000000  0.000000  0.333333    0.03703704   2 t-inv F
  0.000000  0.000000 -0.333333    0.03703704   2 t-inv F
  0.333333  0.333333  0.333333    0.03703704   2 t-inv F
 -0.333333 -0.333333 -0.333333    0.03703704   2 t-inv F
 -0.333333 -0.333333  0.000000    0.03703704   3 t-inv F
  0.000000  0.333333  0.333333    0.03703704   3 t-inv F
  0.000000 -0.333333 -0.333333    0.03703704   3 t-inv F
  0.333333  0.000000  0.333333    0.03703704   3 t-inv F
 -0.333333  0.000000 -0.333333    0.03703704   3 t-inv F
  0.333333 -0.333333  0.000000    0.03703704   4 t-inv F
  0.000000 -0.333333  0.333333    0.03703704   4 t-inv F
  0.000000  0.333333 -0.333333    0.03703704   4 t-inv F
  0.333333  0.000000 -0.333333    0.03703704   4 t-inv F
 -0.333333  0.000000  0.333333    0.03703704   4 t-inv F
  0.333333  0.333333  0.666667    0.03703704   4 t-inv F
 -0.333333 -0.333333 -0.666667    0.03703704   4 t-inv F
 -0.333333 -0.666667 -0.333333    0.03703704   4 t-inv F
  0.333333  0.666667  0.333333    0.03703704   4 t-inv F
 -0.666667 -0.333333 -0.333333    0.03703704   4 t-inv F
  0.666667  0.333333  0.333333    0.03703704   4 t-inv F


--------------------------------------------------------------------------------------------------------




 Dimension of arrays:
   k-points           NKPTS =      4   k-points in BZ     NKDIM =      4   number of bands    NBANDS=    648
   number of dos      NEDOS =    301   number of ions     NIONS =     64
   non local maximal  LDIM  =      6   non local SUM 2l+1 LMDIM =     18
   total plane-waves  NPLWV = 343000
   max r-space proj   IRMAX =   4056   max aug-charges    IRDMAX=   6551
   dimension x,y,z NGX =    70 NGY =   70 NGZ =   70
   dimension x,y,z NGXF=   112 NGYF=  112 NGZF=  112
   support grid    NGXF=   112 NGYF=  112 NGZF=  112
   ions per type =              64
 NGX,Y,Z   is equivalent  to a cutoff of  12.22, 12.22, 12.22 a.u.
 NGXF,Y,Z  is equivalent  to a cutoff of  19.56, 19.56, 19.56 a.u.


 I would recommend the setting:
   dimension x,y,z NGX =    67 NGY =   67 NGZ =   67
 SYSTEM =  phonon of Zr bcc - omiga                
 POSCAR =  Supercell by Yi Wang                    

 Startparameter for this run:
   NWRITE =      0    write-flag & timer
   PREC   = h         normal or accurate (medium, high low for compatibility)
   ISTART =      0    job   : 0-new  1-cont  2-samecut
   ICHARG =      2    charge: 1-file 2-atom 10-const
   ISPIN  =      2    spin polarized calculation?
   LNONCOLLINEAR =      F non collinear calculations
   LSORBIT =      F    spin-orbit coupling
   INIWAV =      1    electr: 0-lowe 1-rand  2-diag
   LASPH  =      F    aspherical Exc in radial PAW
   METAGGA=      F    non-selfconsistent MetaGGA calc.

 Electronic Relaxation 1
   ENCUT  =  459.9 eV  33.80 Ry    5.81 a.u.  16.65 16.65 16.65*2*pi/ulx,y,z
   ENINI  =  459.9     initial cutoff
   ENAUG  =  703.4 eV  augmentation charge cutoff
   NELM   =     60;   NELMIN=  2; NELMDL=  0     # of ELM steps 
   EDIFF  = 0.1E-05   stopping-criterion for ELM
   LREAL  =      T    real-space projection
   NLSPLINE    = F    spline interpolate recip. space projectors
   LCOMPAT=      F    compatible to vasp.4.4
   GGA_COMPAT  = T    GGA compatible to vasp.4.4-vasp.4.6
   LMAXPAW     = -100 max onsite density
   LMAXMIX     =    2 max onsite mixed and CHGCAR
   VOSKOWN=      0    Vosko Wilk Nusair interpolation
   ROPT   =   -0.00040
 Ionic relaxation
   EDIFFG = 0.1E-04   stopping-criterion for IOM
   NSW    =    805    number of steps for IOM
   NBLOCK =      1;   KBLOCK =      1    inner block; outer block 
   IBRION =      6    ionic relax: 0-MD 1-quasi-New 2-CG
   NFREE  =      2    steps in history (QN), initial steepest desc. (CG)
   ISIF   =      2    stress and relaxation
   IWAVPR =     11    prediction:  0-non 1-charg 2-wave 3-comb
   ISYM   =      2    0-nonsym 1-usesym 2-fastsym
   LCORR  =      T    Harris-Foulkes like correction to forces

   POTIM  = 0.5000    time-step for ionic-motion
   TEIN   =    0.0    initial temperature
   TEBEG  =    0.0;   TEEND  =   0.0 temperature during run
   SMASS  =  -3.00    Nose mass-parameter (am)
   estimated Nose-frequenzy (Omega)   =  0.10E-29 period in steps =****** mass=  -0.207E-26a.u.
   SCALEE = 1.0000    scale energy and forces
   NPACO  =    256;   APACO  = 16.0  distance and # of slots for P.C.
   PSTRESS=    0.0 pullay stress

  Mass of Ions in am
   POMASS =  58.69
  Ionic Valenz
   ZVAL   =  16.00
  Atomic Wigner-Seitz radii
   RWIGS  =  -1.00
  virtual crystal weights 
   VCA    =   1.00
   NELECT =    1024.0000    total number of electrons
   NUPDOWN=      -1.0000    fix difference up-down

 DOS related values:
   EMIN   =  10.00;   EMAX   =-10.00  energy-range for DOS
   EFERMI =   0.00
   ISMEAR =     1;   SIGMA  =   0.20  broadening in eV -4-tet -1-fermi 0-gaus

 Electronic relaxation 2 (details)
   IALGO  =     38    algorithm
   LDIAG  =      T    sub-space diagonalisation (order eigenvalues)
   LSUBROT=      F    optimize rotation matrix (better conditioning)
   TURBO    =      0    0=normal 1=particle mesh
   IRESTART =      0    0=no restart 2=restart with 2 vectors
   NREBOOT  =      0    no. of reboots
   NMIN     =      0    reboot dimension
   EREF     =   0.00    reference energy to select bands
   IMIX   =      4    mixing-type and parameters
     AMIX     =   0.40;   BMIX     =  1.00
     AMIX_MAG =   1.60;   BMIX_MAG =  1.00
     AMIN     =   0.10
     WC   =   100.;   INIMIX=   1;  MIXPRE=   1;  MAXMIX= -45

 Intra band minimization:
   WEIMIN = 0.0010     energy-eigenvalue tresh-hold
   EBREAK =  0.39E-09  absolut break condition
   DEPER  =   0.30     relativ break condition  

   TIME   =   0.40     timestep for ELM

  volume/ion in A,a.u.               =       9.54        64.36
  Fermi-wavevector in a.u.,A,eV,Ry     =   1.945236  3.675963 51.483679  3.783944
  Thomas-Fermi vector in A             =   2.973994
 
 Write flags
   LWAVE  =      T    write WAVECAR
   LCHARG =      T    write CHGCAR
   LVTOT  =      F    write LOCPOT, total local potential
   LVHAR  =      F    write LOCPOT, Hartree potential only
   LELF   =      F    write electronic localiz. function (ELF)
   LORBIT =      0    0 simple, 1 ext, 2 COOP (PROOUT)


 Dipole corrections
   LMONO  =      F    monopole corrections only (constant potential shift)
   LDIPOL =      F    correct potential (dipole corrections)
   IDIPOL =      0    1-x, 2-y, 3-z, 4-all directions 
   EPSILON=  1.0000000 bulk dielectric constant

 Exchange correlation treatment:
   GGA     =    --    GGA type
   LEXCH   =     8    internal setting for exchange type
   VOSKOWN=      0    Vosko Wilk Nusair interpolation
   LHFCALC =     F    Hartree Fock is set to
   LHFONE  =     F    Hartree Fock one center treatment
   AEXX    =    0.0000 exact exchange contribution

 Linear response parameters
   LEPSILON=     F    determine dielectric tensor
   LRPA    =     F    only Hartree local field effects (RPA)
   LNABLA  =     F    use nabla operator in PAW spheres
   LVEL    =     F    velocity operator in full k-point grid
   LINTERFAST=   F  fast interpolation
   KINTER  =     0    interpolate to denser k-point grid
   CSHIFT  =0.1000    complex shift for real part using Kramers Kronig
   OMEGAMAX=  -1.0    maximum frequency
   DEG_THRESHOLD= 0.2000000E-02 threshold for treating states as degnerate
   RTIME   =    0.100 relaxation time in fs

 Orbital magnetization related:
   ORBITALMAG=     F  switch on orbital magnetization
   LCHIMAG   =     F  perturbation theory with respect to B field
   DQ        =  0.001000  dq finite difference perturbation B field



--------------------------------------------------------------------------------------------------------


 finite differences with symmetry
 charge density and potential will be updated during run
 spin polarized calculation
 Variant of blocked Davidson
 Davidson routine will perform the subspace rotation
 perform sub-space diagonalisation
    after iterative eigenvector-optimisation
 modified Broyden-mixing scheme, WC =      100.0
 initial mixing is a Kerker type mixing with AMIX =  0.4000 and BMIX =      1.0000
 Hartree-type preconditioning will be used
 using additional bands          136
 real space projection scheme for non local part
 use partial core corrections
 calculate Harris-corrections to forces 
   (improved forces if not selfconsistent)
 use gradient corrections 
 use of overlap-Matrix (Vanderbilt PP)
 Methfessel and Paxton  Order N= 1 SIGMA  =   0.20


--------------------------------------------------------------------------------------------------------


  energy-cutoff  :      459.93
  volume of cell :      610.39
      direct lattice vectors                 reciprocal lattice vectors
     0.000000000  6.732750000  6.732750000    -0.074263859  0.074263859  0.074263859
     6.732750000  0.000000000  6.732750000     0.074263859 -0.074263859  0.074263859
     6.732750000  6.732750000  0.000000000     0.074263859  0.074263859 -0.074263859

  length of vectors
     9.521546362  9.521546362  9.521546362     0.128628778  0.128628778  0.128628778


 
 k-points in units of 2pi/SCALE and weight: Zr 15x15x15                             
   0.00000000  0.00000000  0.00000000       0.037
  -0.02475462  0.02475462  0.02475462       0.296
   0.00000000  0.00000000  0.04950924       0.222
   0.04950924 -0.04950924  0.00000000       0.444
 
 k-points in reciprocal lattice and weights: Zr 15x15x15                             
   0.00000000  0.00000000  0.00000000       0.037
   0.33333333  0.00000000  0.00000000       0.296
   0.33333333  0.33333333  0.00000000       0.222
  -0.33333333  0.33333333  0.00000000       0.444
 
 position of ions in fractional coordinates (direct lattice) 
   0.00000000  0.00000000  0.00000000
   0.00000000  0.00000000  0.25000000
   0.00000000  0.00000000  0.50000000
   0.00000000  0.00000000  0.75000000
   0.00000000  0.25000000  0.00000000
   0.00000000  0.25000000  0.25000000
   0.00000000  0.25000000  0.50000000
   0.00000000  0.25000000  0.75000000
   0.00000000  0.50000000  0.00000000
   0.00000000  0.50000000  0.25000000
   0.00000000  0.50000000  0.50000000
   0.00000000  0.50000000  0.75000000
   0.00000000  0.75000000  0.00000000
   0.00000000  0.75000000  0.25000000
   0.00000000  0.75000000  0.50000000
   0.00000000  0.75000000  0.75000000
   0.25000000  0.00000000  0.00000000
   0.25000000  0.00000000  0.25000000
   0.25000000  0.00000000  0.50000000
   0.25000000  0.00000000  0.75000000
   0.25000000  0.25000000  0.00000000
   0.25000000  0.25000000  0.25000000
   0.25000000  0.25000000  0.50000000
   0.25000000  0.25000000  0.75000000
   0.25000000  0.50000000  0.00000000
   0.25000000  0.50000000  0.25000000
   0.25000000  0.50000000  0.50000000
   0.25000000  0.50000000  0.75000000
   0.25000000  0.75000000  0.00000000
   0.25000000  0.75000000  0.25000000
   0.25000000  0.75000000  0.50000000
   0.25000000  0.75000000  0.75000000
   0.50000000  0.00000000  0.00000000
   0.50000000  0.00000000  0.25000000
   0.50000000  0.00000000  0.50000000
   0.50000000  0.00000000  0.75000000
   0.50000000  0.25000000  0.00000000
   0.50000000  0.25000000  0.25000000
   0.50000000  0.25000000  0.50000000
   0.50000000  0.25000000  0.75000000
   0.50000000  0.50000000  0.00000000
   0.50000000  0.50000000  0.25000000
   0.50000000  0.50000000  0.50000000
   0.50000000  0.50000000  0.75000000
   0.50000000  0.75000000  0.00000000
   0.50000000  0.75000000  0.25000000
   0.50000000  0.75000000  0.50000000
   0.50000000  0.75000000  0.75000000
   0.75000000  0.00000000  0.00000000
   0.75000000  0.00000000  0.25000000
   0.75000000  0.00000000  0.50000000
   0.75000000  0.00000000  0.75000000
   0.75000000  0.25000000  0.00000000
   0.75000000  0.25000000  0.25000000
   0.75000000  0.25000000  0.50000000
   0.75000000  0.25000000  0.75000000
   0.75000000  0.50000000  0.00000000
   0.75000000  0.50000000  0.25000000
   0.75000000  0.50000000  0.50000000
   0.75000000  0.50000000  0.75000000
   0.75000000  0.75000000  0.00000000
   0.75000000  0.75000000  0.25000000
   0.75000000  0.75000000  0.50000000
   0.75000000  0.75000000  0.75000000
 
 position of ions in cartesian coordinates  (Angst):
   0.00000000  0.00000000  0.00000000
   1.68318750  1.68318750  0.00000000
   3.36637500  3.36637500  0.00000000
   5.04956250  5.04956250  0.00000000
   1.68318750  0.00000000  1.68318750
   3.36637500  1.68318750  1.68318750
   5.04956250  3.36637500  1.68318750
   6.73275000  5.04956250  1.68318750
   3.36637500  0.00000000  3.36637500
   5.04956250  1.68318750  3.36637500
   6.73275000  3.36637500  3.36637500
   8.41593750  5.04956250  3.36637500
   5.04956250  0.00000000  5.04956250
   6.73275000  1.68318750  5.04956250
   8.41593750  3.36637500  5.04956250
  10.09912500  5.04956250  5.04956250
   0.00000000  1.68318750  1.68318750
   1.68318750  3.36637500  1.68318750
   3.36637500  5.04956250  1.68318750
   5.04956250  6.73275000  1.68318750
   1.68318750  1.68318750  3.36637500
   3.36637500  3.36637500  3.36637500
   5.04956250  5.04956250  3.36637500
   6.73275000  6.73275000  3.36637500
   3.36637500  1.68318750  5.04956250
   5.04956250  3.36637500  5.04956250
   6.73275000  5.04956250  5.04956250
   8.41593750  6.73275000  5.04956250
   5.04956250  1.68318750  6.73275000
   6.73275000  3.36637500  6.73275000
   8.41593750  5.04956250  6.73275000
  10.09912500  6.73275000  6.73275000
   0.00000000  3.36637500  3.36637500
   1.68318750  5.04956250  3.36637500
   3.36637500  6.73275000  3.36637500
   5.04956250  8.41593750  3.36637500
   1.68318750  3.36637500  5.04956250
   3.36637500  5.04956250  5.04956250
   5.04956250  6.73275000  5.04956250
   6.73275000  8.41593750  5.04956250
   3.36637500  3.36637500  6.73275000
   5.04956250  5.04956250  6.73275000
   6.73275000  6.73275000  6.73275000
   8.41593750  8.41593750  6.73275000
   5.04956250  3.36637500  8.41593750
   6.73275000  5.04956250  8.41593750
   8.41593750  6.73275000  8.41593750
  10.09912500  8.41593750  8.41593750
   0.00000000  5.04956250  5.04956250
   1.68318750  6.73275000  5.04956250
   3.36637500  8.41593750  5.04956250
   5.04956250 10.09912500  5.04956250
   1.68318750  5.04956250  6.73275000
   3.36637500  6.73275000  6.73275000
   5.04956250  8.41593750  6.73275000
   6.73275000 10.09912500  6.73275000
   3.36637500  5.04956250  8.41593750
   5.04956250  6.73275000  8.41593750
   6.73275000  8.41593750  8.41593750
   8.41593750 10.09912500  8.41593750
   5.04956250  5.04956250 10.09912500
   6.73275000  6.73275000 10.09912500
   8.41593750  8.41593750 10.09912500
  10.09912500 10.09912500 10.09912500
 


--------------------------------------------------------------------------------------------------------


 k-point  1 :   0.0000 0.0000 0.0000  plane waves:   13635
 k-point  2 :   0.3333 0.0000 0.0000  plane waves:   13659
 k-point  3 :   0.3333 0.3333 0.0000  plane waves:   13672
 k-point  4 :  -0.3333 0.3333 0.0000  plane waves:   13666

 maximum and minimum number of plane-waves per node :     13672    13635

 maximum number of plane-waves:     13672
 maximum index in each direction: 
   IXMAX=   16   IYMAX=   16   IZMAX=   16
   IXMIN=  -16   IYMIN=  -16   IZMIN=  -16

 NGX is ok and might be reduce to  66
 NGY is ok and might be reduce to  66
 NGZ is ok and might be reduce to  66

 serial   3D FFT for wavefunctions
 parallel 3D FFT for charge:
    minimum data exchange during FFTs selected (reduces bandwidth)


 total amount of memory used by VASP on root node   450457. kBytes
========================================================================

   base      :      30000. kBytes
   nonlr-proj:      43922. kBytes
   fftplans  :      13919. kBytes
   grid      :      53236. kBytes
   one-center:       1990. kBytes
   wavefun   :     307390. kBytes
 
     INWAV:  cpu time    0.0000: real time    0.0000
 Broyden mixing: mesh for mixing (old mesh)
   NGX = 33   NGY = 33   NGZ = 33
  (NGX  =112   NGY  =112   NGZ  =112)
  gives a total of  35937 points

 initial charge density was supplied:
 charge density of overlapping atoms calculated
 number of electron    1024.0000000 magnetization      64.0000000
 keeping initial charge density in first step


--------------------------------------------------------------------------------------------------------


 Maximum index for non-local projection operator         3925
 Maximum index for augmentation-charges         1509 (set IRDMAX)


--------------------------------------------------------------------------------------------------------


 First call to EWALD:  gamma=   0.209
 Maximum number of real-space cells 3x 3x 3
 Maximum number of reciprocal cells 3x 3x 3

 FEWALD executed in parallel
    FEWALD:  cpu time    0.0070: real time    0.0070


----------------------------------------- Iteration    1(   1)  ---------------------------------------


    POTLOK:  cpu time    0.4389: real time    0.4386
    SETDIJ:  cpu time    0.0940: real time    0.0935
     EDDAV:  cpu time  168.3494: real time  168.2310
       DOS:  cpu time    0.0030: real time    0.0035
    --------------------------------------------
      LOOP:  cpu time  168.8863: real time  168.7694

 eigenvalue-minimisations  : 11536
 total energy-change (2. order) : 0.1633959E+05  (-0.5813828E+05)
 number of electron    1024.0000000 magnetization      64.0000000
 augmentation part     1024.0000000 magnetization      64.0000000

 Free energy of the ion-electron system (eV)
  ---------------------------------------------------
  alpha Z        PSCENC =     11304.57052840
  Ewald energy   TEWEN  =   -160660.78111346
  -Hartree energ DENC   =    -57619.62050382
  -exchange      EXHF   =         0.00000000
  -V(xc)+E(xc)   XCENC  =      5752.46530180
  PAW double counting   =    172361.15642774  -181272.45834873
  entropy T*S    EENTRO =        -0.02187057
  eigenvalues    EBANDS =      2457.62309577
  atomic energy  EATOM  =    224016.65216645
  Solvation  Ediel_sol  =         0.00000000
  ---------------------------------------------------
  free energy    TOTEN  =     16339.58568359 eV

  energy without entropy =    16339.60755416  energy(sigma->0) =    16339.59297378


--------------------------------------------------------------------------------------------------------




----------------------------------------- Iteration    1(   2)  ---------------------------------------


     EDDAV:  cpu time  154.7795: real time  154.6554
       DOS:  cpu time    0.0040: real time    0.0036
    --------------------------------------------
      LOOP:  cpu time  154.7845: real time  154.6597

 eigenvalue-minimisations  : 10368
 total energy-change (2. order) :-0.1504494E+05  (-0.1457094E+05)
 number of electron    1024.0000000 magnetization      64.0000000
 augmentation part     1024.0000000 magnetization      64.0000000

 Free energy of the ion-electron system (eV)
  ---------------------------------------------------
  alpha Z        PSCENC =     11304.57052840
  Ewald energy   TEWEN  =   -160660.78111346
  -Hartree energ DENC   =    -57619.62050382
  -exchange      EXHF   =         0.00000000
  -V(xc)+E(xc)   XCENC  =      5752.46530180
  PAW double counting   =    172361.15642774  -181272.45834873
  entropy T*S    EENTRO =        -0.02558047
  eigenvalues    EBANDS =    -12587.31713272
  atomic energy  EATOM  =    224016.65216645
  Solvation  Ediel_sol  =         0.00000000
  ---------------------------------------------------
  free energy    TOTEN  =      1294.64174519 eV

  energy without entropy =     1294.66732567  energy(sigma->0) =     1294.65027202


--------------------------------------------------------------------------------------------------------




----------------------------------------- Iteration    1(   3)  ---------------------------------------


     EDDAV:  cpu time  156.7262: real time  156.6055
       DOS:  cpu time    0.0040: real time    0.0040
    --------------------------------------------
      LOOP:  cpu time  156.7312: real time  156.6101

 eigenvalue-minimisations  : 10528
 total energy-change (2. order) :-0.1620959E+04  (-0.1361610E+04)
 number of electron    1024.0000000 magnetization      64.0000000
 augmentation part     1024.0000000 magnetization      64.0000000

 Free energy of the ion-electron system (eV)
  ---------------------------------------------------
  alpha Z        PSCENC =     11304.57052840
  Ewald energy   TEWEN  =   -160660.78111346
  -Hartree energ DENC   =    -57619.62050382
  -exchange      EXHF   =         0.00000000
  -V(xc)+E(xc)   XCENC  =      5752.46530180
  PAW double counting   =    172361.15642774  -181272.45834873
  entropy T*S    EENTRO =        -0.03715664
  eigenvalues    EBANDS =    -14208.26483060
  atomic energy  EATOM  =    224016.65216645
  Solvation  Ediel_sol  =         0.00000000
  ---------------------------------------------------
  free energy    TOTEN  =      -326.31752885 eV

  energy without entropy =     -326.28037221  energy(sigma->0) =     -326.30514330


--------------------------------------------------------------------------------------------------------




----------------------------------------- Iteration    1(   4)  ---------------------------------------


     EDDAV:  cpu time  162.9292: real time  162.7988
       DOS:  cpu time    0.0040: real time    0.0037
    --------------------------------------------
      LOOP:  cpu time  162.9332: real time  162.8031

 eigenvalue-minimisations  : 11064
 total energy-change (2. order) :-0.9406167E+02  (-0.9151954E+02)
 number of electron    1024.0000000 magnetization      64.0000000
 augmentation part     1024.0000000 magnetization      64.0000000

 Free energy of the ion-electron system (eV)
  ---------------------------------------------------
  alpha Z        PSCENC =     11304.57052840
  Ewald energy   TEWEN  =   -160660.78111346
  -Hartree energ DENC   =    -57619.62050382
  -exchange      EXHF   =         0.00000000
  -V(xc)+E(xc)   XCENC  =      5752.46530180
  PAW double counting   =    172361.15642774  -181272.45834873
  entropy T*S    EENTRO =         0.04862117
  eigenvalues    EBANDS =    -14302.41227412
  atomic energy  EATOM  =    224016.65216645
  Solvation  Ediel_sol  =         0.00000000
  ---------------------------------------------------
  free energy    TOTEN  =      -420.37919456 eV

  energy without entropy =     -420.42781573  energy(sigma->0) =     -420.39540162


--------------------------------------------------------------------------------------------------------




----------------------------------------- Iteration    1(   5)  ---------------------------------------


     EDDAV:  cpu time  163.5311: real time  163.3999
       DOS:  cpu time    0.0050: real time    0.0042
    CHARGE:  cpu time    9.1966: real time    9.1898
    MIXING:  cpu time    0.0090: real time    0.0089
    --------------------------------------------
      LOOP:  cpu time  172.7417: real time  172.6035

 eigenvalue-minimisations  : 11152
 total energy-change (2. order) :-0.1530765E+01  (-0.1529327E+01)
 number of electron    1024.0005725 magnetization      57.1344098
 augmentation part      575.4243911 magnetization      45.8319026

 Broyden mixing:
  rms(total) = 0.66055E+01    rms(broyden)= 0.66042E+01
  rms(prec ) = 0.90797E+01
  weight for this iteration     100.00

 Free energy of the ion-electron system (eV)
  ---------------------------------------------------
  alpha Z        PSCENC =     11304.57052840
  Ewald energy   TEWEN  =   -160660.78111346
  -Hartree energ DENC   =    -57619.62050382
  -exchange      EXHF   =         0.00000000
  -V(xc)+E(xc)   XCENC  =      5752.46530180
  PAW double counting   =    172361.15642774  -181272.45834873
  entropy T*S    EENTRO =         0.04985375
  eigenvalues    EBANDS =    -14303.94427171
  atomic energy  EATOM  =    224016.65216645
  Solvation  Ediel_sol  =         0.00000000
  ---------------------------------------------------
  free energy    TOTEN  =      -421.90995957 eV

  energy without entropy =     -421.95981332  energy(sigma->0) =     -421.92657748


--------------------------------------------------------------------------------------------------------




----------------------------------------- Iteration    1(   6)  ---------------------------------------


    POTLOK:  cpu time    0.4379: real time    0.4383
    SETDIJ:  cpu time    0.0930: real time    0.0923
     EDDAV:  cpu time  160.8615: real time  160.7331
       DOS:  cpu time    0.0050: real time    0.0052
    CHARGE:  cpu time    9.1186: real time    9.1119
    MIXING:  cpu time    0.0100: real time    0.0098
    --------------------------------------------
      LOOP:  cpu time  170.5271: real time  170.3914

 eigenvalue-minimisations  : 10904
 total energy-change (2. order) : 0.4327994E+02  (-0.4862179E+02)
 number of electron    1024.0006205 magnetization      49.5132324
 augmentation part      623.2602953 magnetization      44.2815788

 Broyden mixing:
  rms(total) = 0.38512E+01    rms(broyden)= 0.38510E+01
  rms(prec ) = 0.47810E+01
  weight for this iteration     100.00

 eigenvalues of (default mixing * dielectric matrix)
  average eigenvalue GAMMA=   0.6119
  0.6119

 Free energy of the ion-electron system (eV)
  ---------------------------------------------------
  alpha Z        PSCENC =     11304.57052840
  Ewald energy   TEWEN  =   -160660.78111346
  -Hartree energ DENC   =    -54682.53807071
  -exchange      EXHF   =         0.00000000
  -V(xc)+E(xc)   XCENC  =      5637.15436582
  PAW double counting   =    169468.61439000  -178104.29698076
  entropy T*S    EENTRO =        -0.29157395
  eigenvalues    EBANDS =    -17357.71373609
  atomic energy  EATOM  =    224016.65216645
  Solvation  Ediel_sol  =         0.00000000
  ---------------------------------------------------
  free energy    TOTEN  =      -378.63002430 eV

  energy without entropy =     -378.33845035  energy(sigma->0) =     -378.53283298


--------------------------------------------------------------------------------------------------------




----------------------------------------- Iteration    1(   7)  ---------------------------------------


    POTLOK:  cpu time    0.4359: real time    0.4353
    SETDIJ:  cpu time    0.0930: real time    0.0929
     EDDAV:  cpu time  160.4856: real time  160.3599
       DOS:  cpu time    0.0050: real time    0.0055
    CHARGE:  cpu time    9.1426: real time    9.1363
    MIXING:  cpu time    0.0100: real time    0.0098
    --------------------------------------------
      LOOP:  cpu time  170.1741: real time  170.0405

 eigenvalue-minimisations  : 10856
 total energy-change (2. order) : 0.1743525E+02  (-0.7734718E+01)
 number of electron    1024.0006028 magnetization      39.9533743
 augmentation part      605.6478547 magnetization      33.0371433

 Broyden mixing:
  rms(total) = 0.64578E+00    rms(broyden)= 0.64565E+00
  rms(prec ) = 0.78039E+00
  weight for this iteration     100.00

 eigenvalues of (default mixing * dielectric matrix)
  average eigenvalue GAMMA=   0.9902
  1.3437  0.6366

 Free energy of the ion-electron system (eV)
  ---------------------------------------------------
  alpha Z        PSCENC =     11304.57052840
  Ewald energy   TEWEN  =   -160660.78111346
  -Hartree energ DENC   =    -55548.90473656
  -exchange      EXHF   =         0.00000000
  -V(xc)+E(xc)   XCENC  =      5670.00320867
  PAW double counting   =    171836.93160313  -180739.01220646
  entropy T*S    EENTRO =        -0.25220060
  eigenvalues    EBANDS =    -16240.40202232
  atomic energy  EATOM  =    224016.65216645
  Solvation  Ediel_sol  =         0.00000000
  ---------------------------------------------------
  free energy    TOTEN  =      -361.19477274 eV

  energy without entropy =     -360.94257214  energy(sigma->0) =     -361.11070587


--------------------------------------------------------------------------------------------------------




----------------------------------------- Iteration    1(   8)  ---------------------------------------


    POTLOK:  cpu time    0.4359: real time    0.4347
    SETDIJ:  cpu time    0.0920: real time    0.0923
     EDDAV:  cpu time  161.5754: real time  161.4562
       DOS:  cpu time    0.0060: real time    0.0053
    CHARGE:  cpu time    9.2406: real time    9.2335
    MIXING:  cpu time    0.0110: real time    0.0107
    --------------------------------------------
      LOOP:  cpu time  171.3619: real time  171.2335

 eigenvalue-minimisations  : 10976
 total energy-change (2. order) : 0.1799517E+00  (-0.8224480E-01)
 number of electron    1024.0006029 magnetization      35.7399534
 augmentation part      605.6851313 magnetization      30.4038363

 Broyden mixing:
  rms(total) = 0.25269E+00    rms(broyden)= 0.25268E+00
  rms(prec ) = 0.31343E+00
  weight for this iteration     100.00

 eigenvalues of (default mixing * dielectric matrix)
  average eigenvalue GAMMA=   1.2215
  0.6542  0.8171  2.1931

 Free energy of the ion-electron system (eV)
  ---------------------------------------------------
  alpha Z        PSCENC =     11304.57052840
  Ewald energy   TEWEN  =   -160660.78111346
  -Hartree energ DENC   =    -55364.08092060
  -exchange      EXHF   =         0.00000000
  -V(xc)+E(xc)   XCENC  =      5662.90289492
  PAW double counting   =    173230.42995221  -182270.20995688
  entropy T*S    EENTRO =        -0.27555624
  eigenvalues    EBANDS =    -16280.22281590
  atomic energy  EATOM  =    224016.65216645
  Solvation  Ediel_sol  =         0.00000000
  ---------------------------------------------------
  free energy    TOTEN  =      -361.01482109 eV

  energy without entropy =     -360.73926485  energy(sigma->0) =     -360.92296901


--------------------------------------------------------------------------------------------------------




----------------------------------------- Iteration    1(   9)  ---------------------------------------


    POTLOK:  cpu time    0.4339: real time    0.4351
    SETDIJ:  cpu time    0.0940: real time    0.0931
     EDDAV:  cpu time  185.0499: real time  184.9017
       DOS:  cpu time    0.0060: real time    0.0054
    CHARGE:  cpu time    9.2206: real time    9.2130
    MIXING:  cpu time    0.0120: real time    0.0115
    --------------------------------------------
      LOOP:  cpu time  194.8174: real time  194.6608

 eigenvalue-minimisations  : 13032
 total energy-change (2. order) : 0.3550020E-01  (-0.6921383E-02)
 number of electron    1024.0006034 magnetization      35.4275415
 augmentation part      606.2092624 magnetization      30.7870199

 Broyden mixing:
  rms(total) = 0.51855E-01    rms(broyden)= 0.51836E-01
  rms(prec ) = 0.52907E-01
  weight for this iteration     100.00

 eigenvalues of (default mixing * dielectric matrix)
  average eigenvalue GAMMA=   1.1573
  2.3997  0.9543  0.6376  0.6376

 Free energy of the ion-electron system (eV)
  ---------------------------------------------------
  alpha Z        PSCENC =     11304.57052840
  Ewald energy   TEWEN  =   -160660.78111346
  -Hartree energ DENC   =    -55261.26030676
  -exchange      EXHF   =         0.00000000
  -V(xc)+E(xc)   XCENC  =      5658.93516552
  PAW double counting   =    173906.61374979  -183000.57189385
  entropy T*S    EENTRO =        -0.25397134
  eigenvalues    EBANDS =    -16324.88364564
  atomic energy  EATOM  =    224016.65216645
  Solvation  Ediel_sol  =         0.00000000
  ---------------------------------------------------
  free energy    TOTEN  =      -360.97932089 eV

  energy without entropy =     -360.72534955  energy(sigma->0) =     -360.89466378


--------------------------------------------------------------------------------------------------------




----------------------------------------- Iteration    1(  10)  ---------------------------------------


    POTLOK:  cpu time    0.4329: real time    0.4325
    SETDIJ:  cpu time    0.0930: real time    0.0925
     EDDAV:  cpu time  167.1776: real time  167.0435
       DOS:  cpu time    0.0050: real time    0.0052
    CHARGE:  cpu time    9.1586: real time    9.1515
    MIXING:  cpu time    0.0120: real time    0.0127
    --------------------------------------------
      LOOP:  cpu time  176.8791: real time  176.7387

 eigenvalue-minimisations  : 11464
 total energy-change (2. order) :-0.3649164E-02  (-0.6690127E-03)
 number of electron    1024.0006034 magnetization      35.4148080
 augmentation part      606.2142397 magnetization      30.7938235

 Broyden mixing:
  rms(total) = 0.15164E-01    rms(broyden)= 0.15160E-01
  rms(prec ) = 0.18104E-01
  weight for this iteration     100.00

 eigenvalues of (default mixing * dielectric matrix)
  average eigenvalue GAMMA=   1.1592
  2.3929  1.0638  1.0638  0.6377  0.6377

 Free energy of the ion-electron system (eV)
  ---------------------------------------------------
  alpha Z        PSCENC =     11304.57052840
  Ewald energy   TEWEN  =   -160660.78111346
  -Hartree energ DENC   =    -55256.91008265
  -exchange      EXHF   =         0.00000000
  -V(xc)+E(xc)   XCENC  =      5658.78341011
  PAW double counting   =    174017.84631521  -183114.12908933
  entropy T*S    EENTRO =        -0.25033986
  eigenvalues    EBANDS =    -16326.76476492
  atomic energy  EATOM  =    224016.65216645
  Solvation  Ediel_sol  =         0.00000000
  ---------------------------------------------------
  free energy    TOTEN  =      -360.98297005 eV

  energy without entropy =     -360.73263019  energy(sigma->0) =     -360.89952343


--------------------------------------------------------------------------------------------------------




----------------------------------------- Iteration    1(  11)  ---------------------------------------


    POTLOK:  cpu time    0.4399: real time    0.4391
    SETDIJ:  cpu time    0.0930: real time    0.0927
     EDDAV:  cpu time  169.9342: real time14122.1481
       DOS:  cpu time    0.0250: real time    0.0246
    CHARGE:  cpu time   14.6308: real time   14.6194
    MIXING:  cpu time    0.0430: real time    0.0430
    --------------------------------------------
      LOOP:  cpu time  185.1669: real time14137.3678

 eigenvalue-minimisations  : 11096
 total energy-change (2. order) :-0.3127397E-03  (-0.6531744E-04)
 number of electron    1024.0006034 magnetization      35.3636061
 augmentation part      606.1791816 magnetization      30.7349436

 Broyden mixing:
  rms(total) = 0.57874E-02    rms(broyden)= 0.57846E-02
  rms(prec ) = 0.60957E-02
  weight for this iteration     100.00

 eigenvalues of (default mixing * dielectric matrix)
  average eigenvalue GAMMA=   1.2625
  2.4077  2.2588  0.9516  0.6632  0.6632  0.6307

 Free energy of the ion-electron system (eV)
  ---------------------------------------------------
  alpha Z        PSCENC =     11304.57052840
  Ewald energy   TEWEN  =   -160660.78111346
  -Hartree energ DENC   =    -55262.72229344
  -exchange      EXHF   =         0.00000000
  -V(xc)+E(xc)   XCENC  =      5658.98679995
  PAW double counting   =    174128.73631666  -183221.61397263
  entropy T*S    EENTRO =        -0.24909034
  eigenvalues    EBANDS =    -16324.56262440
  atomic energy  EATOM  =    224016.65216645
  Solvation  Ediel_sol  =         0.00000000
  ---------------------------------------------------
  free energy    TOTEN  =      -360.98328279 eV

  energy without entropy =     -360.73419246  energy(sigma->0) =     -360.90025268


--------------------------------------------------------------------------------------------------------




----------------------------------------- Iteration    1(  12)  ---------------------------------------


    POTLOK:  cpu time    0.7619: real time    0.7609
    SETDIJ:  cpu time    0.1590: real time    0.1590
     EDDAV:  cpu time  276.0090: real time  275.7846
       DOS:  cpu time    0.0150: real time    0.0143
    CHARGE:  cpu time   14.6698: real time   14.6586
    MIXING:  cpu time    0.0440: real time    0.0436
    --------------------------------------------
      LOOP:  cpu time  291.6597: real time  291.4218

 eigenvalue-minimisations  : 10784
 total energy-change (2. order) :-0.4578495E-04  (-0.7234138E-05)
 number of electron    1024.0006034 magnetization      35.3452199
 augmentation part      606.1858497 magnetization      30.7231937

 Broyden mixing:
  rms(total) = 0.11192E-02    rms(broyden)= 0.11185E-02
  rms(prec ) = 0.12300E-02
  weight for this iteration     100.00

 eigenvalues of (default mixing * dielectric matrix)
  average eigenvalue GAMMA=   1.2686
  2.6728  2.3546  0.9255  0.9255  0.6387  0.6387  0.7245

 Free energy of the ion-electron system (eV)
  ---------------------------------------------------
  alpha Z        PSCENC =     11304.57052840
  Ewald energy   TEWEN  =   -160660.78111346
  -Hartree energ DENC   =    -55263.30904379
  -exchange      EXHF   =         0.00000000
  -V(xc)+E(xc)   XCENC  =      5659.00223594
  PAW double counting   =    174172.50345901  -183264.38823266
  entropy T*S    EENTRO =        -0.24867551
  eigenvalues    EBANDS =    -16324.98465296
  atomic energy  EATOM  =    224016.65216645
  Solvation  Ediel_sol  =         0.00000000
  ---------------------------------------------------
  free energy    TOTEN  =      -360.98332858 eV

  energy without entropy =     -360.73465306  energy(sigma->0) =     -360.90043674


--------------------------------------------------------------------------------------------------------




----------------------------------------- Iteration    1(  13)  ---------------------------------------


    POTLOK:  cpu time    0.7569: real time    0.7562
    SETDIJ:  cpu time    0.1590: real time    0.1590
     EDDAV:  cpu time  240.8124: real time  240.6184
       DOS:  cpu time    0.0240: real time    0.0243
    --------------------------------------------
      LOOP:  cpu time  241.7542: real time  241.5585

 eigenvalue-minimisations  :  9008
 total energy-change (2. order) : 0.1700246E-06  (-0.6090946E-06)
 number of electron    1024.0006034 magnetization      35.3452199
 augmentation part      606.1858497 magnetization      30.7231937

 Free energy of the ion-electron system (eV)
  ---------------------------------------------------
  alpha Z        PSCENC =     11304.57052840
  Ewald energy   TEWEN  =   -160660.78111346
  -Hartree energ DENC   =    -55263.18192226
  -exchange      EXHF   =         0.00000000
  -V(xc)+E(xc)   XCENC  =      5658.99686108
  PAW double counting   =    174176.23933111  -183268.01253781
  entropy T*S    EENTRO =        -0.24862480
  eigenvalues    EBANDS =    -16325.21801713
  atomic energy  EATOM  =    224016.65216645
  Solvation  Ediel_sol  =         0.00000000
  ---------------------------------------------------
  free energy    TOTEN  =      -360.98332841 eV

  energy without entropy =     -360.73470361  energy(sigma->0) =     -360.90045347


--------------------------------------------------------------------------------------------------------




 average (electrostatic) potential at core
  the test charge radii are     0.8614
  (the norm of the test charge is              1.0000)
       1 -77.8098       2 -77.8098       3 -77.8098       4 -77.8098       5 -77.8098
       6 -77.8098       7 -77.8098       8 -77.8098       9 -77.8098      10 -77.8098
      11 -77.8098      12 -77.8098      13 -77.8098      14 -77.8098      15 -77.8098
      16 -77.8098      17 -77.8098      18 -77.8098      19 -77.8098      20 -77.8098
      21 -77.8098      22 -77.8098      23 -77.8098      24 -77.8098      25 -77.8098
      26 -77.8098      27 -77.8098      28 -77.8098      29 -77.8098      30 -77.8098
      31 -77.8098      32 -77.8098      33 -77.8098      34 -77.8098      35 -77.8098
      36 -77.8098      37 -77.8098      38 -77.8098      39 -77.8098      40 -77.8098
      41 -77.8098      42 -77.8098      43 -77.8098      44 -77.8098      45 -77.8098
      46 -77.8098      47 -77.8098      48 -77.8098      49 -77.8098      50 -77.8098
      51 -77.8098      52 -77.8098      53 -77.8098      54 -77.8098      55 -77.8098
      56 -77.8098      57 -77.8098      58 -77.8098      59 -77.8098      60 -77.8098
      61 -77.8098      62 -77.8098      63 -77.8098      64 -77.8098
 
 
 
 E-fermi :   9.6473     XC(G=0): -14.6456     alpha+bet :-16.9768


 spin component 1

 k-point     1 :       0.0000    0.0000    0.0000
  band No.  band energies     occupation 
      1     -54.6586      1.00000
      2     -54.6585      1.00000
      3     -54.6585      1.00000
      4     -54.6585      1.00000
      5     -54.6382      1.00000
      6     -54.6382      1.00000
      7     -54.6382      1.00000
      8     -54.5981      1.00000
      9     -54.5981      1.00000
     10     -54.5981      1.00000
     11     -54.5981      1.00000
     12     -54.5981      1.00000
     13     -54.5981      1.00000
     14     -54.5981      1.00000
     15     -54.5981      1.00000
     16     -54.5981      1.00000
     17     -54.5981      1.00000
     18     -54.5981      1.00000
     19     -54.5981      1.00000
     20     -54.5981      1.00000
     21     -54.5981      1.00000
     22     -54.5981      1.00000
     23     -54.5981      1.00000
     24     -54.5981      1.00000
     25     -54.5981      1.00000
     26     -54.5981      1.00000
     27     -54.5981      1.00000
     28     -54.5981      1.00000
     29     -54.5981      1.00000
     30     -54.5981      1.00000
     31     -54.5981      1.00000
     32     -54.5582      1.00000
     33     -54.5582      1.00000
     34     -54.5582      1.00000
     35     -54.5582      1.00000
     36     -54.5582      1.00000
     37     -54.5582      1.00000
     38     -54.5582      1.00000
     39     -54.5582      1.00000
     40     -54.5582      1.00000
     41     -54.5582      1.00000
     42     -54.5582      1.00000
     43     -54.5582      1.00000
     44     -54.5370      1.00000
     45     -54.5370      1.00000
     46     -54.5370      1.00000
     47     -54.5370      1.00000
     48     -54.5370      1.00000
     49     -54.5370      1.00000
     50     -54.5370      1.00000
     51     -54.5370      1.00000
     52     -54.5370      1.00000
     53     -54.5370      1.00000
     54     -54.5370      1.00000
     55     -54.5370      1.00000
     56     -54.4828      1.00000
     57     -54.4828      1.00000
     58     -54.4828      1.00000
     59     -54.4828      1.00000
     60     -54.4828      1.00000
     61     -54.4828      1.00000
     62     -54.4828      1.00000
     63     -54.4828      1.00000
     64     -54.4757      1.00000
     65     -54.4757      1.00000
     66     -54.4757      1.00000
     67     -54.4757      1.00000
     68     -54.4757      1.00000
     69     -54.4757      1.00000
     70     -54.4538      1.00000
     71     -54.4538      1.00000
     72     -54.4538      1.00000
     73     -54.4538      1.00000
     74     -54.4538      1.00000
     75     -54.4538      1.00000
     76     -54.4538      1.00000
     77     -54.4538      1.00000
     78     -54.4538      1.00000
     79     -54.4538      1.00000
     80     -54.4538      1.00000
     81     -54.4538      1.00000
     82     -54.4464      1.00000
     83     -54.4464      1.00000
     84     -54.4464      1.00000
     85     -54.4464      1.00000
     86     -54.4464      1.00000
     87     -54.4464      1.00000
     88     -54.4463      1.00000
     89     -54.4463      1.00000
     90     -54.4463      1.00000
     91     -54.4463      1.00000
     92     -54.4463      1.00000
     93     -54.4463      1.00000
     94     -54.4463      1.00000
     95     -54.4463      1.00000
     96     -54.4463      1.00000
     97     -54.4463      1.00000
     98     -54.4463      1.00000
     99     -54.4463      1.00000
    100     -54.4463      1.00000
    101     -54.4463      1.00000
    102     -54.4463      1.00000
    103     -54.4463      1.00000
    104     -54.4463      1.00000
    105     -54.4463      1.00000
    106     -54.4385      1.00000
    107     -54.4385      1.00000
    108     -54.4385      1.00000
    109     -54.4385      1.00000
    110     -54.4385      1.00000
    111     -54.4385      1.00000
    112     -54.4354      1.00000
    113     -54.4354      1.00000
    114     -54.4354      1.00000
    115     -54.4353      1.00000
    116     -54.4353      1.00000
    117     -54.4353      1.00000
    118     -54.3952      1.00000
    119     -54.3952      1.00000
    120     -54.3952      1.00000
    121     -54.3952      1.00000
    122     -54.3952      1.00000
    123     -54.3952      1.00000
    124     -54.3952      1.00000
    125     -54.3952      1.00000
    126     -54.3952      1.00000
    127     -54.3952      1.00000
    128     -54.3952      1.00000
    129     -54.3952      1.00000
    130     -54.3951      1.00000
    131     -54.3951      1.00000
    132     -54.3951      1.00000
    133     -54.3951      1.00000
    134     -54.3951      1.00000
    135     -54.3951      1.00000
    136     -54.3951      1.00000
    137     -54.3951      1.00000
    138     -54.3951      1.00000
    139     -54.3951      1.00000
    140     -54.3951      1.00000
    141     -54.3951      1.00000
    142     -54.3703      1.00000
    143     -54.3703      1.00000
    144     -54.3703      1.00000
    145     -54.3703      1.00000
    146     -54.3703      1.00000
    147     -54.3703      1.00000
    148     -54.3703      1.00000
    149     -54.3703      1.00000
    150     -54.3703      1.00000
    151     -54.3703      1.00000
    152     -54.3703      1.00000
    153     -54.3703      1.00000
    154     -54.3551      1.00000
    155     -54.3551      1.00000
    156     -54.3551      1.00000
    157     -54.3551      1.00000
    158     -54.3551      1.00000
    159     -54.3551      1.00000
    160     -54.3551      1.00000
    161     -54.3551      1.00000
    162     -54.3551      1.00000
    163     -54.3551      1.00000
    164     -54.3551      1.00000
    165     -54.3551      1.00000
    166     -54.3548      1.00000
    167     -54.3548      1.00000
    168     -54.3548      1.00000
    169     -54.3548      1.00000
    170     -54.3548      1.00000
    171     -54.3548      1.00000
    172     -54.3548      1.00000
    173     -54.3548      1.00000
    174     -54.3301      1.00000
    175     -54.3301      1.00000
    176     -54.3301      1.00000
    177     -54.3301      1.00000
    178     -54.3301      1.00000
    179     -54.3301      1.00000
    180     -54.3300      1.00000
    181     -54.3300      1.00000
    182     -54.3300      1.00000
    183     -54.3300      1.00000
    184     -54.3300      1.00000
    185     -54.3300      1.00000
    186     -54.3300      1.00000
    187     -54.3300      1.00000
    188     -54.3300      1.00000
    189     -54.3300      1.00000
    190     -54.3054      1.00000
    191     -54.3053      1.00000
    192     -54.3053      1.00000
    193      -0.3693      1.00000
    194       2.0611      1.00000
    195       2.0611      1.00000
    196       2.0612      1.00000
    197       2.0612      1.00000
    198       2.0612      1.00000
    199       2.0612      1.00000
    200       2.0612      1.00000
    201       2.0612      1.00000
    202       2.7534      1.00000
    203       2.7534      1.00000
    204       2.7534      1.00000
    205       2.7534      1.00000
    206       2.7534      1.00000
    207       2.7534      1.00000
    208       4.0276      1.00000
    209       4.0277      1.00000
    210       4.0277      1.00000
    211       4.0277      1.00000
    212       4.1215      1.00000
    213       4.1215      1.00000
    214       4.1215      1.00000
    215       4.7083      1.00000
    216       4.7083      1.00000
    217       4.7083      1.00000
    218       4.7959      1.00000
    219       4.7959      1.00000
    220       4.7959      1.00000
    221       4.7959      1.00000
    222       4.7959      1.00000
    223       4.7959      1.00000
    224       4.7959      1.00000
    225       4.7959      1.00000
    226       4.7959      1.00000
    227       4.7959      1.00000
    228       4.7959      1.00000
    229       4.7959      1.00000
    230       4.8586      1.00000
    231       4.8586      1.00000
    232       4.8586      1.00000
    233       4.8586      1.00000
    234       4.8586      1.00000
    235       4.8586      1.00000
    236       4.8586      1.00000
    237       4.8586      1.00000
    238       4.8586      1.00000
    239       4.8586      1.00000
    240       4.8586      1.00000
    241       4.8586      1.00000
    242       4.8587      1.00000
    243       4.8587      1.00000
    244       4.8587      1.00000
    245       4.8587      1.00000
    246       4.8587      1.00000
    247       4.8587      1.00000
    248       4.8587      1.00000
    249       4.8587      1.00000
    250       4.8587      1.00000
    251       4.8587      1.00000
    252       4.8587      1.00000
    253       4.8587      1.00000
    254       5.1701      1.00000
    255       5.1701      1.00000
    256       5.1701      1.00000
    257       5.1701      1.00000
    258       5.1701      1.00000
    259       5.1701      1.00000
    260       5.5911      1.00000
    261       5.5911      1.00000
    262       5.5911      1.00000
    263       5.5911      1.00000
    264       5.5911      1.00000
    265       5.5911      1.00000
    266       5.5911      1.00000
    267       5.5911      1.00000
    268       5.5911      1.00000
    269       5.5911      1.00000
    270       5.5911      1.00000
    271       5.5911      1.00000
    272       5.5911      1.00000
    273       5.5911      1.00000
    274       5.5911      1.00000
    275       5.5911      1.00000
    276       5.5911      1.00000
    277       5.5911      1.00000
    278       5.5911      1.00000
    279       5.5911      1.00000
    280       5.5911      1.00000
    281       5.5911      1.00000
    282       5.5911      1.00000
    283       5.5911      1.00000
    284       5.7435      1.00000
    285       5.7435      1.00000
    286       5.7435      1.00000
    287       5.7435      1.00000
    288       5.7435      1.00000
    289       5.7435      1.00000
    290       6.0863      1.00000
    291       6.0863      1.00000
    292       6.0863      1.00000
    293       6.0863      1.00000
    294       6.0863      1.00000
    295       6.0863      1.00000
    296       6.0863      1.00000
    297       6.0863      1.00000
    298       6.0863      1.00000
    299       6.0863      1.00000
    300       6.0863      1.00000
    301       6.0863      1.00000
    302       6.0872      1.00000
    303       6.0872      1.00000
    304       6.0872      1.00000
    305       6.0872      1.00000
    306       6.0872      1.00000
    307       6.0872      1.00000
    308       6.0872      1.00000
    309       6.0872      1.00000
    310       6.0872      1.00000
    311       6.0872      1.00000
    312       6.0872      1.00000
    313       6.0872      1.00000
    314       6.4276      1.00000
    315       6.4276      1.00000
    316       6.4276      1.00000
    317       6.4276      1.00000
    318       6.4276      1.00000
    319       6.4276      1.00000
    320       6.4276      1.00000
    321       6.4276      1.00000
    322       6.4276      1.00000
    323       6.4276      1.00000
    324       6.4276      1.00000
    325       6.4276      1.00000
    326       6.4757      1.00000
    327       6.4757      1.00000
    328       6.4757      1.00000
    329       6.4757      1.00000
    330       6.4757      1.00000
    331       6.4757      1.00000
    332       6.4757      1.00000
    333       6.4757      1.00000
    334       6.8783      1.00000
    335       6.8783      1.00000
    336       6.8783      1.00000
    337       6.8783      1.00000
    338       6.8783      1.00000
    339       6.8783      1.00000
    340       6.8783      1.00000
    341       6.8783      1.00000
    342       6.8901      1.00000
    343       6.8901      1.00000
    344       6.8901      1.00000
    345       6.9269      1.00000
    346       6.9269      1.00000
    347       6.9269      1.00000
    348       6.9269      1.00000
    349       6.9269      1.00000
    350       6.9269      1.00000
    351       6.9269      1.00000
    352       6.9269      1.00000
    353       6.9269      1.00000
    354       6.9269      1.00000
    355       6.9269      1.00000
    356       6.9269      1.00000
    357       6.9269      1.00000
    358       6.9269      1.00000
    359       6.9269      1.00000
    360       6.9269      1.00000
    361       6.9269      1.00000
    362       6.9269      1.00000
    363       6.9269      1.00000
    364       6.9269      1.00000
    365       6.9269      1.00000
    366       6.9270      1.00000
    367       6.9270      1.00000
    368       6.9270      1.00000
    369       7.1543      1.00000
    370       7.1543      1.00000
    371       7.1543      1.00000
    372       7.1544      1.00000
    373       7.1544      1.00000
    374       7.1544      1.00000
    375       7.1544      1.00000
    376       7.1544      1.00000
    377       7.1544      1.00000
    378       7.1544      1.00000
    379       7.1544      1.00000
    380       7.1544      1.00000
    381       7.1544      1.00000
    382       7.1544      1.00000
    383       7.1544      1.00000
    384       7.1544      1.00000
    385       7.5451      1.00000
    386       7.5451      1.00000
    387       7.5451      1.00000
    388       7.5451      1.00000
    389       7.5451      1.00000
    390       7.5451      1.00000
    391       7.7448      1.00000
    392       7.7448      1.00000
    393       7.7448      1.00000
    394       7.7448      1.00000
    395       7.7448      1.00000
    396       7.7448      1.00000
    397       7.7448      1.00000
    398       7.7448      1.00000
    399       7.7448      1.00000
    400       7.7448      1.00000
    401       7.7448      1.00000
    402       7.7448      1.00000
    403       7.9176      1.00000
    404       7.9176      1.00000
    405       7.9176      1.00000
    406       7.9176      1.00000
    407       7.9176      1.00000
    408       7.9176      1.00000
    409       7.9177      1.00000
    410       7.9177      1.00000
    411       7.9177      1.00000
    412       7.9177      1.00000
    413       7.9177      1.00000
    414       7.9177      1.00000
    415       7.9367      1.00000
    416       7.9367      1.00000
    417       7.9367      1.00000
    418       7.9367      1.00000
    419       7.9367      1.00000
    420       7.9367      1.00000
    421       7.9367      1.00000
    422       7.9367      1.00000
    423       7.9367      1.00000
    424       7.9367      1.00000
    425       7.9367      1.00000
    426       7.9367      1.00000
    427       7.9367      1.00000
    428       7.9367      1.00000
    429       7.9367      1.00000
    430       7.9367      1.00000
    431       7.9367      1.00000
    432       7.9367      1.00000
    433       7.9367      1.00000
    434       7.9367      1.00000
    435       7.9367      1.00000
    436       7.9367      1.00000
    437       7.9367      1.00000
    438       7.9367      1.00000
    439       8.1730      1.00000
    440       8.1730      1.00000
    441       8.1730      1.00000
    442       8.1730      1.00000
    443       8.1730      1.00000
    444       8.1730      1.00000
    445       8.1730      1.00000
    446       8.1730      1.00000
    447       8.1730      1.00000
    448       8.1730      1.00000
    449       8.1730      1.00000
    450       8.1730      1.00000
    451       8.2002      1.00000
    452       8.2002      1.00000
    453       8.2002      1.00000
    454       8.2002      1.00000
    455       8.2002      1.00000
    456       8.2002      1.00000
    457       8.2967      1.00000
    458       8.2967      1.00000
    459       8.3833      1.00000
    460       8.3833      1.00000
    461       8.3833      1.00000
    462       8.3833      1.00000
    463       8.3833      1.00000
    464       8.3833      1.00000
    465       8.3833      1.00000
    466       8.3833      1.00000
    467       8.3833      1.00000
    468       8.3833      1.00000
    469       8.3834      1.00000
    470       8.3834      1.00000
    471       8.3834      1.00000
    472       8.3834      1.00000
    473       8.3834      1.00000
    474       8.3834      1.00000
    475       8.7247      1.00000
    476       8.7247      1.00000
    477       8.7247      1.00000
    478       8.7247      1.00000
    479       8.7247      1.00000
    480       8.7247      1.00000
    481       9.0486      1.00010
    482       9.0486      1.00010
    483       9.0486      1.00010
    484       9.0487      1.00010
    485       9.1310      1.00080
    486       9.1310      1.00080
    487       9.1310      1.00080
    488       9.1310      1.00080
    489       9.1310      1.00080
    490       9.1310      1.00080
    491       9.1310      1.00080
    492       9.1310      1.00080
    493       9.1694      1.00187
    494       9.1694      1.00187
    495       9.1694      1.00187
    496       9.1922      1.00297
    497       9.1922      1.00297
    498       9.1922      1.00297
[...]
      6.732750  3.366375  3.366375    -0.035381   -0.119343   -0.011425  
      8.415938  5.049563  3.366375    -0.035381   -0.119343   -0.011425  
      5.049563  0.000000  5.049563    -0.035381   -0.119343   -0.011425  
      6.732750  1.683188  5.049563    -0.035381   -0.119343   -0.011425  
      8.415938  3.366375  5.049563    -0.035381   -0.119343   -0.011425  
     10.099125  5.049563  5.049563    -0.035381   -0.119343   -0.011425  
      0.000000  1.683188  1.683188    -0.035381   -0.119343   -0.011425  
      1.683188  3.366375  1.683188    -0.035381   -0.119343   -0.011425  
      3.366375  5.049563  1.683188    -0.035381   -0.119343   -0.011425  
      5.049563  6.732750  1.683188    -0.035381   -0.119343   -0.011425  
      1.683188  1.683188  3.366375    -0.035381   -0.119343   -0.011425  
      3.366375  3.366375  3.366375    -0.035381   -0.119343   -0.011425  
      5.049563  5.049563  3.366375    -0.035381   -0.119343   -0.011425  
      6.732750  6.732750  3.366375    -0.035381   -0.119343   -0.011425  
      3.366375  1.683188  5.049563    -0.035381   -0.119343   -0.011425  
      5.049563  3.366375  5.049563    -0.035381   -0.119343   -0.011425  
      6.732750  5.049563  5.049563    -0.035381   -0.119343   -0.011425  
      8.415938  6.732750  5.049563    -0.035381   -0.119343   -0.011425  
      5.049563  1.683188  6.732750    -0.035381   -0.119343   -0.011425  
      6.732750  3.366375  6.732750    -0.035381   -0.119343   -0.011425  
      8.415938  5.049563  6.732750    -0.035381   -0.119343   -0.011425  
     10.099125  6.732750  6.732750    -0.035381   -0.119343   -0.011425  
      0.000000  3.366375  3.366375    -0.035381   -0.119343   -0.011425  
      1.683188  5.049563  3.366375    -0.035381   -0.119343   -0.011425  
      3.366375  6.732750  3.366375    -0.035381   -0.119343   -0.011425  
      5.049563  8.415938  3.366375    -0.035381   -0.119343   -0.011425  
      1.683188  3.366375  5.049563    -0.035381   -0.119343   -0.011425  
      3.366375  5.049563  5.049563    -0.035381   -0.119343   -0.011425  
      5.049563  6.732750  5.049563    -0.035381   -0.119343   -0.011425  
      6.732750  8.415938  5.049563    -0.035381   -0.119343   -0.011425  
      3.366375  3.366375  6.732750    -0.035381   -0.119343   -0.011425  
      5.049563  5.049563  6.732750    -0.035381   -0.119343   -0.011425  
      6.732750  6.732750  6.732750    -0.035381   -0.119343   -0.011425  
      8.415938  8.415938  6.732750    -0.035381   -0.119343   -0.011425  
      5.049563  3.366375  8.415938    -0.035381   -0.119343   -0.011425  
      6.732750  5.049563  8.415938    -0.035381   -0.119343   -0.011425  
      8.415938  6.732750  8.415938    -0.035381   -0.119343   -0.011425  
     10.099125  8.415938  8.415938    -0.035381   -0.119343   -0.011425  
      0.000000  5.049563  5.049563    -0.035381   -0.119343   -0.011425  
      1.683188  6.732750  5.049563    -0.035381   -0.119343   -0.011425  
      3.366375  8.415938  5.049563    -0.035381   -0.119343   -0.011425  
      5.049563 10.099125  5.049563    -0.035381   -0.119343   -0.011425  
      1.683188  5.049563  6.732750    -0.035381   -0.119343   -0.011425  
      3.366375  6.732750  6.732750    -0.035381   -0.119343   -0.011425  
      5.049563  8.415938  6.732750    -0.035381   -0.119343   -0.011425  
      6.732750 10.099125  6.732750    -0.035381   -0.119343   -0.011425  
      3.366375  5.049563  8.415938    -0.035381   -0.119343   -0.011425  
      5.049563  6.732750  8.415938    -0.035381   -0.119343   -0.011425  
      6.732750  8.415938  8.415938    -0.035381   -0.119343   -0.011425  
      8.415938 10.099125  8.415938    -0.035381   -0.119343   -0.011425  
      5.049563  5.049563 10.099125    -0.035381   -0.119343   -0.011425  
      6.732750  6.732750 10.099125    -0.035381   -0.119343   -0.011425  
      8.415938  8.415938 10.099125    -0.035381   -0.119343   -0.011425  
     10.099125 10.099125 10.099125    -0.035381   -0.119343   -0.011425  
 
 192 f/i=    0.000001 THz     0.000004 2PiTHz    0.000021 cm-1     0.000003 meV
             X         Y         Z           dx          dy          dz
      0.000000  0.000000  0.000000     0.003593    0.010851   -0.124476  
      1.683188  1.683188  0.000000     0.003593    0.010851   -0.124476  
      3.366375  3.366375  0.000000     0.003593    0.010851   -0.124476  
      5.049563  5.049563  0.000000     0.003593    0.010851   -0.124476  
      1.683188  0.000000  1.683188     0.003593    0.010851   -0.124476  
      3.366375  1.683188  1.683188     0.003593    0.010851   -0.124476  
      5.049563  3.366375  1.683188     0.003593    0.010851   -0.124476  
      6.732750  5.049563  1.683188     0.003593    0.010851   -0.124476  
      3.366375  0.000000  3.366375     0.003593    0.010851   -0.124476  
      5.049563  1.683188  3.366375     0.003593    0.010851   -0.124476  
      6.732750  3.366375  3.366375     0.003593    0.010851   -0.124476  
      8.415938  5.049563  3.366375     0.003593    0.010851   -0.124476  
      5.049563  0.000000  5.049563     0.003593    0.010851   -0.124476  
      6.732750  1.683188  5.049563     0.003593    0.010851   -0.124476  
      8.415938  3.366375  5.049563     0.003593    0.010851   -0.124476  
     10.099125  5.049563  5.049563     0.003593    0.010851   -0.124476  
      0.000000  1.683188  1.683188     0.003593    0.010851   -0.124476  
      1.683188  3.366375  1.683188     0.003593    0.010851   -0.124476  
      3.366375  5.049563  1.683188     0.003593    0.010851   -0.124476  
      5.049563  6.732750  1.683188     0.003593    0.010851   -0.124476  
      1.683188  1.683188  3.366375     0.003593    0.010851   -0.124476  
      3.366375  3.366375  3.366375     0.003593    0.010851   -0.124476  
      5.049563  5.049563  3.366375     0.003593    0.010851   -0.124476  
      6.732750  6.732750  3.366375     0.003593    0.010851   -0.124476  
      3.366375  1.683188  5.049563     0.003593    0.010851   -0.124476  
      5.049563  3.366375  5.049563     0.003593    0.010851   -0.124476  
      6.732750  5.049563  5.049563     0.003593    0.010851   -0.124476  
      8.415938  6.732750  5.049563     0.003593    0.010851   -0.124476  
      5.049563  1.683188  6.732750     0.003593    0.010851   -0.124476  
      6.732750  3.366375  6.732750     0.003593    0.010851   -0.124476  
      8.415938  5.049563  6.732750     0.003593    0.010851   -0.124476  
     10.099125  6.732750  6.732750     0.003593    0.010851   -0.124476  
      0.000000  3.366375  3.366375     0.003593    0.010851   -0.124476  
      1.683188  5.049563  3.366375     0.003593    0.010851   -0.124476  
      3.366375  6.732750  3.366375     0.003593    0.010851   -0.124476  
      5.049563  8.415938  3.366375     0.003593    0.010851   -0.124476  
      1.683188  3.366375  5.049563     0.003593    0.010851   -0.124476  
      3.366375  5.049563  5.049563     0.003593    0.010851   -0.124476  
      5.049563  6.732750  5.049563     0.003593    0.010851   -0.124476  
      6.732750  8.415938  5.049563     0.003593    0.010851   -0.124476  
      3.366375  3.366375  6.732750     0.003593    0.010851   -0.124476  
      5.049563  5.049563  6.732750     0.003593    0.010851   -0.124476  
      6.732750  6.732750  6.732750     0.003593    0.010851   -0.124476  
      8.415938  8.415938  6.732750     0.003593    0.010851   -0.124476  
      5.049563  3.366375  8.415938     0.003593    0.010851   -0.124476  
      6.732750  5.049563  8.415938     0.003593    0.010851   -0.124476  
      8.415938  6.732750  8.415938     0.003593    0.010851   -0.124476  
     10.099125  8.415938  8.415938     0.003593    0.010851   -0.124476  
      0.000000  5.049563  5.049563     0.003593    0.010851   -0.124476  
      1.683188  6.732750  5.049563     0.003593    0.010851   -0.124476  
      3.366375  8.415938  5.049563     0.003593    0.010851   -0.124476  
      5.049563 10.099125  5.049563     0.003593    0.010851   -0.124476  
      1.683188  5.049563  6.732750     0.003593    0.010851   -0.124476  
      3.366375  6.732750  6.732750     0.003593    0.010851   -0.124476  
      5.049563  8.415938  6.732750     0.003593    0.010851   -0.124476  
      6.732750 10.099125  6.732750     0.003593    0.010851   -0.124476  
      3.366375  5.049563  8.415938     0.003593    0.010851   -0.124476  
      5.049563  6.732750  8.415938     0.003593    0.010851   -0.124476  
      6.732750  8.415938  8.415938     0.003593    0.010851   -0.124476  
      8.415938 10.099125  8.415938     0.003593    0.010851   -0.124476  
      5.049563  5.049563 10.099125     0.003593    0.010851   -0.124476  
      6.732750  6.732750 10.099125     0.003593    0.010851   -0.124476  
      8.415938  8.415938 10.099125     0.003593    0.010851   -0.124476  
     10.099125 10.099125 10.099125     0.003593    0.010851   -0.124476  
 

 ELASTIC MODULI CONTR FROM IONIC RELAXATION (kBar)
 Direction    XX          YY          ZZ          XY          YZ          ZX
 --------------------------------------------------------------------------------
 XX          -0.0000     -0.0000     -0.0000     -0.0000     -0.0000     -0.0000
 YY          -0.0000     -0.0000      0.0000      0.0000     -0.0000     -0.0000
 ZZ           0.0000      0.0000     -0.0000      0.0000      0.0000      0.0000
 XY          -0.0000      0.0000      0.0000      0.0000     -0.0000      0.0000
 YZ          -0.0000     -0.0000      0.0000     -0.0000     -0.0000     -0.0000
 ZX          -0.0000     -0.0000      0.0000      0.0000     -0.0000     -0.0000
 --------------------------------------------------------------------------------



--------------------------------------------------------------------------------------------------------


  LATTYP: Found a face centered cubic cell.
 ALAT       =    13.4655000000
  
  Lattice vectors:
  
 A1 = (   0.0000000000,   6.7327500000,   6.7327500000)
 A2 = (   6.7327500000,   0.0000000000,   6.7327500000)
 A3 = (   6.7327500000,   6.7327500000,   0.0000000000)


Analysis of symmetry for initial positions (statically):
=====================================================================
 Subroutine PRICEL returns following result:
 
  LATTYP: Found a face centered cubic cell.
 ALAT       =     3.3663750000
  
  Lattice vectors:
  
 A1 = (   0.0000000000,   1.6831875000,   1.6831875000)
 A2 = (   1.6831875000,   0.0000000000,   1.6831875000)
 A3 = (   1.6831875000,   1.6831875000,   0.0000000000)
 
  64 primitive cells build up your supercell.
 

 Routine SETGRP: Setting up the symmetry group for a 
 face centered cubic supercell.


 Subroutine GETGRP returns: Found 48 space group operations
 (whereof 48 operations were pure point group operations)
 out of a pool of 48 trial point group operations.


The static configuration has the point symmetry O_h .


Analysis of symmetry for dynamics (positions and initial velocities):
=====================================================================
 Subroutine PRICEL returns following result:
 
  LATTYP: Found a face centered cubic cell.
 ALAT       =     3.3663750000
  
  Lattice vectors:
  
 A1 = (   0.0000000000,   1.6831875000,   1.6831875000)
 A2 = (   1.6831875000,   0.0000000000,   1.6831875000)
 A3 = (   1.6831875000,   1.6831875000,   0.0000000000)
 
  64 primitive cells build up your supercell.
 

 Routine SETGRP: Setting up the symmetry group for a 
 face centered cubic supercell.


 Subroutine GETGRP returns: Found 48 space group operations
 (whereof 48 operations were pure point group operations)
 out of a pool of 48 trial point group operations.


The dynamic configuration has the point symmetry O_h .


Analysis of structural, dynamic, and magnetic symmetry:
=====================================================================
 Subroutine PRICEL returns following result:
 
  LATTYP: Found a face centered cubic cell.
 ALAT       =     3.3663750000
  
  Lattice vectors:
  
 A1 = (   0.0000000000,   1.6831875000,   1.6831875000)
 A2 = (   1.6831875000,   0.0000000000,   1.6831875000)
 A3 = (   1.6831875000,   1.6831875000,   0.0000000000)
 
  64 primitive cells build up your supercell.
 

 Routine SETGRP: Setting up the symmetry group for a 
 face centered cubic supercell.


 Subroutine GETGRP returns: Found 48 space group operations
 (whereof 48 operations were pure point group operations)
 out of a pool of 48 trial point group operations.


The magnetic configuration has the point symmetry O_h .


 Subroutine INISYM returns: Found 48 space group operations
 (whereof 48 operations are pure point group operations),
 and found    64 'primitive' translations

 
 KPOINTS: Zr 15x15x15                             

Automatic generation of k-mesh.
Space group operators:
 irot       det(A)        alpha          n_x          n_y          n_z        tau_x        tau_y        tau_z
    1     1.000000     0.000000     1.000000     0.000000     0.000000     0.000000     0.000000     0.000000
    2    -1.000000     0.000000     1.000000     0.000000     0.000000     0.000000     0.000000     0.000000
    3     1.000000   120.000000    -0.577350    -0.577350    -0.577350     0.000000     0.000000     0.000000
    4    -1.000000   120.000000    -0.577350    -0.577350    -0.577350     0.000000     0.000000     0.000000
    5     1.000000   120.000000     0.577350     0.577350     0.577350     0.000000     0.000000     0.000000
    6    -1.000000   120.000000     0.577350     0.577350     0.577350     0.000000     0.000000     0.000000
    7     1.000000    90.000000     0.000000     0.000000    -1.000000     0.000000     0.000000     0.000000
    8    -1.000000    90.000000     0.000000     0.000000    -1.000000     0.000000     0.000000     0.000000
    9     1.000000   180.000000     0.000000     0.707107     0.707107     0.000000     0.000000     0.000000
   10    -1.000000   180.000000     0.000000     0.707107     0.707107     0.000000     0.000000     0.000000
   11     1.000000    90.000000     0.000000     1.000000     0.000000     0.000000     0.000000     0.000000
   12    -1.000000    90.000000     0.000000     1.000000     0.000000     0.000000     0.000000     0.000000
   13     1.000000   180.000000     0.000000     0.000000     1.000000     0.000000     0.000000     0.000000
   14    -1.000000   180.000000     0.000000     0.000000     1.000000     0.000000     0.000000     0.000000
   15     1.000000   120.000000    -0.577350     0.577350     0.577350     0.000000     0.000000     0.000000
   16    -1.000000   120.000000    -0.577350     0.577350     0.577350     0.000000     0.000000     0.000000
   17     1.000000   120.000000    -0.577350     0.577350    -0.577350     0.000000     0.000000     0.000000
   18    -1.000000   120.000000    -0.577350     0.577350    -0.577350     0.000000     0.000000     0.000000
   19     1.000000    90.000000     0.000000     0.000000     1.000000     0.000000     0.000000     0.000000
   20    -1.000000    90.000000     0.000000     0.000000     1.000000     0.000000     0.000000     0.000000
   21     1.000000    90.000000    -1.000000     0.000000     0.000000     0.000000     0.000000     0.000000
   22    -1.000000    90.000000    -1.000000     0.000000     0.000000     0.000000     0.000000     0.000000
   23     1.000000   180.000000     0.707107     0.000000     0.707107     0.000000     0.000000     0.000000
   24    -1.000000   180.000000     0.707107     0.000000     0.707107     0.000000     0.000000     0.000000
   25     1.000000   120.000000     0.577350    -0.577350     0.577350     0.000000     0.000000     0.000000
   26    -1.000000   120.000000     0.577350    -0.577350     0.577350     0.000000     0.000000     0.000000
   27     1.000000   120.000000    -0.577350    -0.577350     0.577350     0.000000     0.000000     0.000000
   28    -1.000000   120.000000    -0.577350    -0.577350     0.577350     0.000000     0.000000     0.000000
   29     1.000000   180.000000     1.000000     0.000000     0.000000     0.000000     0.000000     0.000000
   30    -1.000000   180.000000     1.000000     0.000000     0.000000     0.000000     0.000000     0.000000
   31     1.000000    90.000000     0.000000    -1.000000     0.000000     0.000000     0.000000     0.000000
   32    -1.000000    90.000000     0.000000    -1.000000     0.000000     0.000000     0.000000     0.000000
   33     1.000000   180.000000     0.707107     0.707107     0.000000     0.000000     0.000000     0.000000
   34    -1.000000   180.000000     0.707107     0.707107     0.000000     0.000000     0.000000     0.000000
   35     1.000000    90.000000     1.000000     0.000000     0.000000     0.000000     0.000000     0.000000
   36    -1.000000    90.000000     1.000000     0.000000     0.000000     0.000000     0.000000     0.000000
   37     1.000000   120.000000     0.577350    -0.577350    -0.577350     0.000000     0.000000     0.000000
   38    -1.000000   120.000000     0.577350    -0.577350    -0.577350     0.000000     0.000000     0.000000
   39     1.000000   180.000000     0.000000     1.000000     0.000000     0.000000     0.000000     0.000000
   40    -1.000000   180.000000     0.000000     1.000000     0.000000     0.000000     0.000000     0.000000
   41     1.000000   120.000000     0.577350     0.577350    -0.577350     0.000000     0.000000     0.000000
   42    -1.000000   120.000000     0.577350     0.577350    -0.577350     0.000000     0.000000     0.000000
   43     1.000000   180.000000     0.000000    -0.707107     0.707107     0.000000     0.000000     0.000000
   44    -1.000000   180.000000     0.000000    -0.707107     0.707107     0.000000     0.000000     0.000000
   45     1.000000   180.000000     0.707107    -0.707107     0.000000     0.000000     0.000000     0.000000
   46    -1.000000   180.000000     0.707107    -0.707107     0.000000     0.000000     0.000000     0.000000
   47     1.000000   180.000000     0.707107     0.000000    -0.707107     0.000000     0.000000     0.000000
   48    -1.000000   180.000000     0.707107     0.000000    -0.707107     0.000000     0.000000     0.000000
 
 Subroutine IBZKPT returns following result:
 ===========================================
 
 Found      4 irreducible k-points:
 
 Following reciprocal coordinates:
            Coordinates               Weight
  0.000000  0.000000  0.000000      1.000000
  0.333333  0.000000  0.000000      8.000000
  0.333333  0.333333  0.000000      6.000000
 -0.333333  0.333333  0.000000     12.000000
 
 Following cartesian coordinates:
            Coordinates               Weight
  0.000000  0.000000  0.000000      1.000000
 -0.024755  0.024755  0.024755      8.000000
  0.000000  0.000000  0.049509      6.000000
  0.049509 -0.049509  0.000000     12.000000
 
 writing wavefunctions
     LOOP+:  cpu time 7412.0882: real time 7409.0967
    4ORBIT:  cpu time    0.0000: real time    0.0000

 total amount of memory used by VASP on root node   450457. kBytes
========================================================================

   base      :      30000. kBytes
   nonlr-proj:      43922. kBytes
   fftplans  :      13919. kBytes
   grid      :      53236. kBytes
   one-center:       1990. kBytes
   wavefun   :     307390. kBytes
 
  
  
 General timing and accounting informations for this job:
 ========================================================
  
                  Total CPU time used (sec):    16805.691
                            User time (sec):    16002.703
                          System time (sec):      802.988
                         Elapsed time (sec):    30750.430
  
                   Maximum memory used (kb):     1104744.
                   Average memory used (kb):           0.
  
                          Minor page faults:       610796
                          Major page faults:            0
                 Voluntary context switches:          916
