 running on    1 total cores
 distrk:  each k-point on    1 cores,    1 groups
 distr:  one band on    1 cores,    1 groups
 using from now: INCAR     
 vasp.5.4.1 05Feb16 (build Oct 12 2016 17:31:35) complex                        
  
 POSCAR found type information on POSCAR  Ni
 POSCAR found :  1 types and       1 ions
 scaLAPACK will be used
 LDA part: xc-table for Pade appr. of Perdew
 POSCAR, INCAR and KPOINTS ok, starting setup
 FFT: planning ...
 WAVECAR not read
 entering main loop
       N       E                     dE             d eps       ncg     rms          rms(c)
DAV:   1     0.121298289957E+03    0.12130E+03   -0.10803E+04 13997   0.175E+03
DAV:   2    -0.444020436093E+01   -0.12574E+03   -0.11864E+03 13772   0.426E+02
DAV:   3    -0.656934240682E+01   -0.21291E+01   -0.21165E+01 15032   0.665E+01
DAV:   4    -0.658678512235E+01   -0.17443E-01   -0.17441E-01 14454   0.562E+00
DAV:   5    -0.658713903240E+01   -0.35391E-03   -0.35397E-03 15109   0.802E-01    0.831E+00
DAV:   6    -0.594296845494E+01    0.64417E+00   -0.43733E+00 13432   0.550E+01    0.473E+00
DAV:   7    -0.565037326659E+01    0.29260E+00   -0.77670E-01 13542   0.226E+01    0.786E-01
DAV:   8    -0.563804148691E+01    0.12332E-01   -0.69378E-03 18904   0.124E+00    0.250E-01
DAV:   9    -0.563716191726E+01    0.87957E-03   -0.44309E-04 17947   0.364E-01    0.503E-02
DAV:  10    -0.563718099821E+01   -0.19081E-04   -0.31226E-05 14347   0.103E-01    0.166E-02
DAV:  11    -0.563719023779E+01   -0.92396E-05   -0.27938E-06 13987   0.361E-02    0.698E-03
DAV:  12    -0.563718684298E+01    0.33948E-05   -0.28298E-07  7071   0.891E-03    0.868E-04
DAV:  13    -0.563718688519E+01   -0.42206E-07   -0.48312E-08  6731   0.344E-03
   1 F= -.56371869E+01 E0= -.56371869E+01  d E =0.000000E+00  mag=     0.5823
 writing wavefunctions
