       N       E                     dE             d eps       ncg     rms          rms(c)
DAV:   1     0.112890223307E+03    0.11289E+03   -0.92688E+03 17224   0.132E+03
DAV:   2    -0.441134293097E+01   -0.11730E+03   -0.10959E+03 18112   0.352E+02
DAV:   3    -0.657558860457E+01   -0.21642E+01   -0.21575E+01 19976   0.542E+01
DAV:   4    -0.658610048018E+01   -0.10512E-01   -0.10513E-01 19848   0.357E+00
DAV:   5    -0.658621116992E+01   -0.11069E-03   -0.11074E-03 19888   0.340E-01    0.826E+00
DAV:   6    -0.593933889049E+01    0.64687E+00   -0.29533E+00 20008   0.441E+01    0.465E+00
DAV:   7    -0.565529793776E+01    0.28404E+00   -0.55421E-01 19320   0.176E+01    0.785E-01
DAV:   8    -0.564269925676E+01    0.12599E-01   -0.61627E-03 22760   0.934E-01    0.256E-01
DAV:   9    -0.564181348916E+01    0.88577E-03   -0.37042E-04 25024   0.285E-01    0.484E-02
DAV:  10    -0.564183334363E+01   -0.19854E-04   -0.19796E-05 17976   0.587E-02    0.158E-02
DAV:  11    -0.564184178602E+01   -0.84424E-05   -0.14035E-06 16136   0.231E-02    0.700E-03
DAV:  12    -0.564183865077E+01    0.31352E-05   -0.42665E-07 10280   0.970E-03    0.814E-04
DAV:  13    -0.564183880826E+01   -0.15749E-06   -0.48281E-08  8944   0.276E-03
   1 F= -.56418388E+01 E0= -.56418388E+01  d E =0.000000E+00  mag=     0.5829
