       N       E                     dE             d eps       ncg     rms          rms(c)
DAV:   1     0.133049402224E+05    0.13305E+05   -0.56222E+05 30632   0.182E+03
DAV:   2     0.676808968868E+03   -0.12628E+05   -0.12251E+05 25920   0.618E+02
DAV:   3    -0.363102847969E+03   -0.10399E+04   -0.85600E+03 26856   0.185E+02
DAV:   4    -0.417395778047E+03   -0.54293E+02   -0.52859E+02 27936   0.413E+01
DAV:   5    -0.418240487854E+03   -0.84471E+00   -0.84384E+00 27440   0.492E+00    0.682E+01
DAV:   6    -0.399949368177E+03    0.18291E+02   -0.69680E+02 27224   0.723E+01    0.632E+01
DAV:   7    -0.356992853018E+03    0.42957E+02   -0.15604E+02 27112   0.344E+01    0.579E+00
DAV:   8    -0.357194548303E+03   -0.20170E+00   -0.15885E+00 27072   0.253E+00    0.303E+00
DAV:   9    -0.357179010102E+03    0.15538E-01   -0.23970E-01 27712   0.829E-01    0.987E-01
DAV:  10    -0.357183710137E+03   -0.47000E-02   -0.12137E-02 29456   0.175E-01    0.251E-01
DAV:  11    -0.357184749462E+03   -0.10393E-02   -0.32715E-03 27160   0.138E-01    0.104E-01
DAV:  12    -0.357184989818E+03   -0.24036E-03   -0.28981E-04 29600   0.335E-02    0.492E-02
DAV:  13    -0.357184993817E+03   -0.39989E-05   -0.88629E-05 27208   0.196E-02    0.140E-02
DAV:  14    -0.357184991091E+03    0.27255E-05   -0.38214E-06 18896   0.354E-03    0.937E-03
DAV:  15    -0.357184981294E+03    0.97977E-05   -0.26987E-06 17584   0.422E-03    0.497E-03
DAV:  16    -0.357184978817E+03    0.24766E-05   -0.36026E-07 13600   0.135E-03    0.806E-04
DAV:  17    -0.357184978817E+03   -0.37835E-09   -0.45656E-08 13560   0.419E-04
   1 F= -.35718498E+03 E0= -.35709065E+03  d E =-.282982E+00  mag=    43.4308
 Found     1 degrees of freedom:
       N       E                     dE             d eps       ncg     rms          rms(c)
DAV:   1    -0.357108372919E+03    0.76606E-01   -0.24921E+00 62072   0.147E+01    0.471E-01
DAV:   2    -0.357185383923E+03   -0.77011E-01   -0.75234E-01 47800   0.150E+00    0.116E+00
DAV:   3    -0.357186851894E+03   -0.14680E-02   -0.29175E-02 57640   0.768E-01    0.107E+00
DAV:   4    -0.357186667203E+03    0.18469E-03   -0.47343E-03 55784   0.511E-01    0.969E-01
DAV:   5    -0.357184690559E+03    0.19766E-02   -0.14209E-03 50672   0.350E-01    0.180E-01
DAV:   6    -0.357184684787E+03    0.57711E-05   -0.26243E-04 61584   0.778E-02    0.145E-01
DAV:   7    -0.357184648181E+03    0.36607E-04   -0.57749E-05 51536   0.512E-02    0.129E-01
DAV:   8    -0.357184628946E+03    0.19234E-04   -0.48143E-05 51328   0.544E-02    0.123E-01
DAV:   9    -0.357184664081E+03   -0.35135E-04   -0.11519E-04 51744   0.944E-02    0.207E-01
DAV:  10    -0.357184539619E+03    0.12446E-03   -0.12654E-04 61032   0.948E-02    0.409E-02
DAV:  11    -0.357184547277E+03   -0.76572E-05   -0.34350E-05 62376   0.309E-02    0.653E-02
DAV:  12    -0.357184542117E+03    0.51599E-05   -0.12514E-05 52056   0.273E-02    0.356E-02
DAV:  13    -0.357184539868E+03    0.22485E-05   -0.43914E-06 44112   0.163E-02    0.122E-02
DAV:  14    -0.357184540548E+03   -0.68013E-06   -0.13917E-06 25344   0.882E-03
   2 F= -.35718454E+03 E0= -.35709022E+03  d E =-.282966E+00  mag=    43.4308
       N       E                     dE             d eps       ncg     rms          rms(c)
DAV:   1    -0.356919755464E+03    0.26478E+00   -0.81101E+00 62504   0.261E+01    0.896E-01
DAV:   2    -0.357202116298E+03   -0.28236E+00   -0.26143E+00 48200   0.271E+00    0.332E+00
DAV:   3    -0.357187651587E+03    0.14465E-01   -0.12089E-01 55544   0.142E+00    0.130E+00
DAV:   4    -0.357196211729E+03   -0.85601E-02   -0.19254E-02 57872   0.107E+00    0.231E+00
DAV:   5    -0.357185230856E+03    0.10981E-01   -0.83392E-03 50616   0.801E-01    0.485E-01
DAV:   6    -0.357184968471E+03    0.26239E-03   -0.12923E-03 60184   0.202E-01    0.252E-01
DAV:   7    -0.357184930683E+03    0.37789E-04   -0.35158E-04 52256   0.120E-01    0.272E-01
DAV:   8    -0.357184771416E+03    0.15927E-03   -0.21886E-04 51224   0.116E-01    0.210E-01
DAV:   9    -0.357184854882E+03   -0.83466E-04   -0.28866E-04 51656   0.145E-01    0.315E-01
DAV:  10    -0.357184734310E+03    0.12057E-03   -0.40446E-04 57416   0.176E-01    0.322E-01
DAV:  11    -0.357184535464E+03    0.19885E-03   -0.22581E-04 59480   0.113E-01    0.494E-02
DAV:  12    -0.357184562571E+03   -0.27107E-04   -0.63826E-05 68288   0.514E-02    0.105E-01
DAV:  13    -0.357184540357E+03    0.22214E-04   -0.31622E-05 50304   0.462E-02    0.277E-02
DAV:  14    -0.357184543564E+03   -0.32068E-05   -0.84510E-06 54320   0.200E-02    0.441E-02
DAV:  15    -0.357184539957E+03    0.36060E-05   -0.39279E-06 32680   0.169E-02    0.989E-03
DAV:  16    -0.357184540391E+03   -0.43388E-06   -0.11466E-06 24240   0.789E-03
   3 F= -.35718454E+03 E0= -.35709022E+03  d E =-.282966E+00  mag=    43.4309
