 vasp.5.4.1 05Feb16 (build Oct 12 2016 17:31:35) complex                        
  
 executed on           IFC91_ompi date 2020.09.08  13:32:01
 running on    8 total cores
 distrk:  each k-point on    8 cores,    1 groups
 distr:  one band on NCORES_PER_BAND=   1 cores,    8 groups


--------------------------------------------------------------------------------------------------------


 INCAR:
 POTCAR:   PAW_PBE Ni_pv 06Sep2000                

 ----------------------------------------------------------------------------- 
|                                                                             |
|           W    W    AA    RRRRR   N    N  II  N    N   GGGG   !!!           |
|           W    W   A  A   R    R  NN   N  II  NN   N  G    G  !!!           |
|           W    W  A    A  R    R  N N  N  II  N N  N  G       !!!           |
|           W WW W  AAAAAA  RRRRR   N  N N  II  N  N N  G  GGG   !            |
|           WW  WW  A    A  R   R   N   NN  II  N   NN  G    G                |
|           W    W  A    A  R    R  N    N  II  N    N   GGGG   !!!           |
|                                                                             |
|      For optimal performance we recommend to set                            |
|        NCORE= 4 - approx SQRT( number of cores)                             |
|      NCORE specifies how many cores store one orbital (NPAR=cpu/NCORE).     |
|      This setting can  greatly improve the performance of VASP for DFT.     |
|      The default, NPAR=number of cores might be grossly inefficient         |
|      on modern multi-core architectures or massively parallel machines.     |
|      Do your own testing !!!!                                               |
|      Unfortunately you need to use the default for GW and RPA calculations. |
|      (for HF NCORE is supported but not extensively tested yet)             |
|                                                                             |
 ----------------------------------------------------------------------------- 

 POTCAR:   PAW_PBE Ni_pv 06Sep2000                
  local pseudopotential read in
  partial core-charges read in
  atomic valenz-charges read in
  non local Contribution for L=           1  read in
    real space projection operators read in
  non local Contribution for L=           1  read in
    real space projection operators read in
  non local Contribution for L=           2  read in
    real space projection operators read in
  non local Contribution for L=           2  read in
    real space projection operators read in
  non local Contribution for L=           0  read in
    real space projection operators read in
  non local Contribution for L=           0  read in
    real space projection operators read in
    PAW grid and wavefunctions read in
 
   number of l-projection  operators is LMAX  =           6
   number of lm-projection operators is LMMAX =          18
 
 Optimization of the real space projectors (new method)

 maximal supplied QI-value         = 18.90
 optimisation between [QCUT,QGAM] = [  9.83, 19.65] = [ 27.04,108.16] Ry 
 Optimized for a Real-space Cutoff    1.44 Angstroem

   l    n(q)    QCUT    max X(q) W(low)/X(q) W(high)/X(q)  e(spline) 
   1      8     9.827     3.231    0.38E-04    0.39E-04    0.57E-07
   1      8     9.827     4.241    0.57E-04    0.19E-03    0.30E-06
   2      7     9.827     3.566    0.29E-04    0.66E-04    0.48E-07
   2      7     9.827    20.429    0.17E-03    0.37E-03    0.30E-06
   0      8     9.827    19.799    0.18E-04    0.76E-05    0.78E-08
   0      8     9.827    52.283    0.39E-04    0.68E-04    0.44E-07
 PAW_PBE Ni_pv 06Sep2000                :
 energy of atom  1       EATOM=-3500.3496
 kinetic energy error for atom=    0.1419 (will be added to EATOM!!)
 
 
 POSCAR: Supercell by Yi Wang                    
  positions in direct lattice
  No initial velocities read in
 exchange correlation table for  LEXCH =        8
   RHO(1)=    0.500       N(1)  =     2000
   RHO(2)=  100.500       N(2)  =     4000
 


--------------------------------------------------------------------------------------------------------


 ion  position               nearest neighbor table
   1  0.000  0.000  0.000-
   2  0.000  0.000  0.250-
   3  0.000  0.000  0.500-
   4  0.000  0.000  0.750-
   5  0.000  0.250  0.000-
   6  0.000  0.250  0.250-
   7  0.000  0.250  0.500-
   8  0.000  0.250  0.750-
   9  0.000  0.500  0.000-
  10  0.000  0.500  0.250-
  11  0.000  0.500  0.500-
  12  0.000  0.500  0.750-
  13  0.000  0.750  0.000-
  14  0.000  0.750  0.250-
  15  0.000  0.750  0.500-
  16  0.000  0.750  0.750-
  17  0.250  0.000  0.000-
  18  0.250  0.000  0.250-
  19  0.250  0.000  0.500-
  20  0.250  0.000  0.750-
  21  0.250  0.250  0.000-
  22  0.250  0.250  0.250-
  23  0.250  0.250  0.500-
  24  0.250  0.250  0.750-
  25  0.250  0.500  0.000-
  26  0.250  0.500  0.250-
  27  0.250  0.500  0.500-
  28  0.250  0.500  0.750-
  29  0.250  0.750  0.000-
  30  0.250  0.750  0.250-
  31  0.250  0.750  0.500-
  32  0.250  0.750  0.750-
  33  0.500  0.000  0.000-
  34  0.500  0.000  0.250-
  35  0.500  0.000  0.500-
  36  0.500  0.000  0.750-
  37  0.500  0.250  0.000-
  38  0.500  0.250  0.250-
  39  0.500  0.250  0.500-
  40  0.500  0.250  0.750-
  41  0.500  0.500  0.000-
  42  0.500  0.500  0.250-
  43  0.500  0.500  0.500-
  44  0.500  0.500  0.750-
  45  0.500  0.750  0.000-
  46  0.500  0.750  0.250-
  47  0.500  0.750  0.500-
  48  0.500  0.750  0.750-
  49  0.750  0.000  0.000-
  50  0.750  0.000  0.250-
  51  0.750  0.000  0.500-
  52  0.750  0.000  0.750-
  53  0.750  0.250  0.000-
  54  0.750  0.250  0.250-
  55  0.750  0.250  0.500-
  56  0.750  0.250  0.750-
  57  0.750  0.500  0.000-
  58  0.750  0.500  0.250-
  59  0.750  0.500  0.500-
  60  0.750  0.500  0.750-
  61  0.750  0.750  0.000-
  62  0.750  0.750  0.250-
  63  0.750  0.750  0.500-
  64  0.750  0.750  0.750-
 
  LATTYP: Found a face centered cubic cell.
 ALAT       =    14.9460000000
  
  Lattice vectors:
  
 A1 = (   0.0000000000,   7.4730000000,   7.4730000000)
 A2 = (   7.4730000000,   0.0000000000,   7.4730000000)
 A3 = (   7.4730000000,   7.4730000000,   0.0000000000)


Analysis of symmetry for initial positions (statically):
=====================================================================
 Subroutine PRICEL returns following result:
 
  LATTYP: Found a face centered cubic cell.
 ALAT       =     3.7365000000
  
  Lattice vectors:
  
 A1 = (   0.0000000000,   1.8682500000,   1.8682500000)
 A2 = (   1.8682500000,   0.0000000000,   1.8682500000)
 A3 = (   1.8682500000,   1.8682500000,   0.0000000000)
 
  64 primitive cells build up your supercell.
 

 Routine SETGRP: Setting up the symmetry group for a 
 face centered cubic supercell.


 Subroutine GETGRP returns: Found 48 space group operations
 (whereof 48 operations were pure point group operations)
 out of a pool of 48 trial point group operations.


The static configuration has the point symmetry O_h .


Analysis of symmetry for dynamics (positions and initial velocities):
=====================================================================
 Subroutine PRICEL returns following result:
 
  LATTYP: Found a face centered cubic cell.
 ALAT       =     3.7365000000
  
  Lattice vectors:
  
 A1 = (   0.0000000000,   1.8682500000,   1.8682500000)
 A2 = (   1.8682500000,   0.0000000000,   1.8682500000)
 A3 = (   1.8682500000,   1.8682500000,   0.0000000000)
 
  64 primitive cells build up your supercell.
 

 Routine SETGRP: Setting up the symmetry group for a 
 face centered cubic supercell.


 Subroutine GETGRP returns: Found 48 space group operations
 (whereof 48 operations were pure point group operations)
 out of a pool of 48 trial point group operations.


The dynamic configuration has the point symmetry O_h .


Analysis of structural, dynamic, and magnetic symmetry:
=====================================================================
 Subroutine PRICEL returns following result:
 
  LATTYP: Found a face centered cubic cell.
 ALAT       =     3.7365000000
  
  Lattice vectors:
  
 A1 = (   0.0000000000,   1.8682500000,   1.8682500000)
 A2 = (   1.8682500000,   0.0000000000,   1.8682500000)
 A3 = (   1.8682500000,   1.8682500000,   0.0000000000)
 
  64 primitive cells build up your supercell.
 

 Routine SETGRP: Setting up the symmetry group for a 
 face centered cubic supercell.


 Subroutine GETGRP returns: Found 48 space group operations
 (whereof 48 operations were pure point group operations)
 out of a pool of 48 trial point group operations.


The magnetic configuration has the point symmetry O_h .


 Subroutine INISYM returns: Found 48 space group operations
 (whereof 48 operations are pure point group operations),
 and found    64 'primitive' translations

 
 
 KPOINTS: Zr 15x15x15                             

Automatic generation of k-mesh.
Space group operators:
 irot       det(A)        alpha          n_x          n_y          n_z        tau_x        tau_y        tau_z
    1     1.000000     0.000000     1.000000     0.000000     0.000000     0.000000     0.000000     0.000000
    2    -1.000000     0.000000     1.000000     0.000000     0.000000     0.000000     0.000000     0.000000
    3     1.000000   120.000000    -0.577350    -0.577350    -0.577350     0.000000     0.000000     0.000000
    4    -1.000000   120.000000    -0.577350    -0.577350    -0.577350     0.000000     0.000000     0.000000
    5     1.000000   120.000000     0.577350     0.577350     0.577350     0.000000     0.000000     0.000000
    6    -1.000000   120.000000     0.577350     0.577350     0.577350     0.000000     0.000000     0.000000
    7     1.000000    90.000000     0.000000     0.000000    -1.000000     0.000000     0.000000     0.000000
    8    -1.000000    90.000000     0.000000     0.000000    -1.000000     0.000000     0.000000     0.000000
    9     1.000000   180.000000     0.000000     0.707107     0.707107     0.000000     0.000000     0.000000
   10    -1.000000   180.000000     0.000000     0.707107     0.707107     0.000000     0.000000     0.000000
   11     1.000000    90.000000     0.000000     1.000000     0.000000     0.000000     0.000000     0.000000
   12    -1.000000    90.000000     0.000000     1.000000     0.000000     0.000000     0.000000     0.000000
   13     1.000000   180.000000     0.000000     0.000000     1.000000     0.000000     0.000000     0.000000
   14    -1.000000   180.000000     0.000000     0.000000     1.000000     0.000000     0.000000     0.000000
   15     1.000000   120.000000    -0.577350     0.577350     0.577350     0.000000     0.000000     0.000000
   16    -1.000000   120.000000    -0.577350     0.577350     0.577350     0.000000     0.000000     0.000000
   17     1.000000   120.000000    -0.577350     0.577350    -0.577350     0.000000     0.000000     0.000000
   18    -1.000000   120.000000    -0.577350     0.577350    -0.577350     0.000000     0.000000     0.000000
   19     1.000000    90.000000     0.000000     0.000000     1.000000     0.000000     0.000000     0.000000
   20    -1.000000    90.000000     0.000000     0.000000     1.000000     0.000000     0.000000     0.000000
   21     1.000000    90.000000    -1.000000     0.000000     0.000000     0.000000     0.000000     0.000000
   22    -1.000000    90.000000    -1.000000     0.000000     0.000000     0.000000     0.000000     0.000000
   23     1.000000   180.000000     0.707107     0.000000     0.707107     0.000000     0.000000     0.000000
   24    -1.000000   180.000000     0.707107     0.000000     0.707107     0.000000     0.000000     0.000000
   25     1.000000   120.000000     0.577350    -0.577350     0.577350     0.000000     0.000000     0.000000
   26    -1.000000   120.000000     0.577350    -0.577350     0.577350     0.000000     0.000000     0.000000
   27     1.000000   120.000000    -0.577350    -0.577350     0.577350     0.000000     0.000000     0.000000
   28    -1.000000   120.000000    -0.577350    -0.577350     0.577350     0.000000     0.000000     0.000000
   29     1.000000   180.000000     1.000000     0.000000     0.000000     0.000000     0.000000     0.000000
   30    -1.000000   180.000000     1.000000     0.000000     0.000000     0.000000     0.000000     0.000000
   31     1.000000    90.000000     0.000000    -1.000000     0.000000     0.000000     0.000000     0.000000
   32    -1.000000    90.000000     0.000000    -1.000000     0.000000     0.000000     0.000000     0.000000
   33     1.000000   180.000000     0.707107     0.707107     0.000000     0.000000     0.000000     0.000000
   34    -1.000000   180.000000     0.707107     0.707107     0.000000     0.000000     0.000000     0.000000
   35     1.000000    90.000000     1.000000     0.000000     0.000000     0.000000     0.000000     0.000000
   36    -1.000000    90.000000     1.000000     0.000000     0.000000     0.000000     0.000000     0.000000
   37     1.000000   120.000000     0.577350    -0.577350    -0.577350     0.000000     0.000000     0.000000
   38    -1.000000   120.000000     0.577350    -0.577350    -0.577350     0.000000     0.000000     0.000000
   39     1.000000   180.000000     0.000000     1.000000     0.000000     0.000000     0.000000     0.000000
   40    -1.000000   180.000000     0.000000     1.000000     0.000000     0.000000     0.000000     0.000000
   41     1.000000   120.000000     0.577350     0.577350    -0.577350     0.000000     0.000000     0.000000
   42    -1.000000   120.000000     0.577350     0.577350    -0.577350     0.000000     0.000000     0.000000
   43     1.000000   180.000000     0.000000    -0.707107     0.707107     0.000000     0.000000     0.000000
   44    -1.000000   180.000000     0.000000    -0.707107     0.707107     0.000000     0.000000     0.000000
   45     1.000000   180.000000     0.707107    -0.707107     0.000000     0.000000     0.000000     0.000000
   46    -1.000000   180.000000     0.707107    -0.707107     0.000000     0.000000     0.000000     0.000000
   47     1.000000   180.000000     0.707107     0.000000    -0.707107     0.000000     0.000000     0.000000
   48    -1.000000   180.000000     0.707107     0.000000    -0.707107     0.000000     0.000000     0.000000
 
 Subroutine IBZKPT returns following result:
 ===========================================
 
 Found     10 irreducible k-points:
 
 Following reciprocal coordinates:
            Coordinates               Weight
  0.000000  0.000000  0.000000      1.000000
  0.200000  0.000000  0.000000      8.000000
  0.400000  0.000000  0.000000      8.000000
  0.200000  0.200000  0.000000      6.000000
  0.400000  0.200000  0.000000     24.000000
 -0.400000  0.200000  0.000000     24.000000
 -0.200000  0.200000  0.000000     12.000000
  0.400000  0.400000  0.000000      6.000000
 -0.400000  0.400000  0.000000     12.000000
 -0.400000  0.400000  0.200000     24.000000
 
 Following cartesian coordinates:
            Coordinates               Weight
  0.000000  0.000000  0.000000      1.000000
 -0.013382  0.013382  0.013382      8.000000
 -0.026763  0.026763  0.026763      8.000000
  0.000000  0.000000  0.026763      6.000000
 -0.013382  0.013382  0.040145     24.000000
  0.040145 -0.040145 -0.013382     24.000000
  0.026763 -0.026763  0.000000     12.000000
  0.000000  0.000000  0.053526      6.000000
  0.053526 -0.053526  0.000000     12.000000
  0.066908 -0.040145 -0.013382     24.000000
 
 
 Subroutine IBZKPT_HF returns following result:
 ==============================================
 
 Found    125 k-points in 1st BZ
 the following    125 k-points will be used (e.g. in the exchange kernel)
 Following reciprocal coordinates:   # in IRBZ
  0.000000  0.000000  0.000000    0.00800000   1 t-inv F
  0.200000  0.000000  0.000000    0.00800000   2 t-inv F
  0.400000  0.000000  0.000000    0.00800000   3 t-inv F
  0.200000  0.200000  0.000000    0.00800000   4 t-inv F
  0.400000  0.200000  0.000000    0.00800000   5 t-inv F
 -0.400000  0.200000  0.000000    0.00800000   6 t-inv F
 -0.200000  0.200000  0.000000    0.00800000   7 t-inv F
  0.400000  0.400000  0.000000    0.00800000   8 t-inv F
 -0.400000  0.400000  0.000000    0.00800000   9 t-inv F
 -0.400000  0.400000  0.200000    0.00800000  10 t-inv F
 -0.200000  0.000000  0.000000    0.00800000   2 t-inv F
  0.000000  0.200000  0.000000    0.00800000   2 t-inv F
  0.000000 -0.200000  0.000000    0.00800000   2 t-inv F
  0.000000  0.000000  0.200000    0.00800000   2 t-inv F
  0.000000  0.000000 -0.200000    0.00800000   2 t-inv F
  0.200000  0.200000  0.200000    0.00800000   2 t-inv F
 -0.200000 -0.200000 -0.200000    0.00800000   2 t-inv F
 -0.400000  0.000000  0.000000    0.00800000   3 t-inv F
  0.000000  0.400000  0.000000    0.00800000   3 t-inv F
  0.000000 -0.400000  0.000000    0.00800000   3 t-inv F
  0.000000  0.000000  0.400000    0.00800000   3 t-inv F
  0.000000  0.000000 -0.400000    0.00800000   3 t-inv F
  0.400000  0.400000  0.400000    0.00800000   3 t-inv F
 -0.400000 -0.400000 -0.400000    0.00800000   3 t-inv F
 -0.200000 -0.200000  0.000000    0.00800000   4 t-inv F
  0.000000  0.200000  0.200000    0.00800000   4 t-inv F
  0.000000 -0.200000 -0.200000    0.00800000   4 t-inv F
  0.200000  0.000000  0.200000    0.00800000   4 t-inv F
 -0.200000  0.000000 -0.200000    0.00800000   4 t-inv F
 -0.400000 -0.200000  0.000000    0.00800000   5 t-inv F
  0.000000  0.400000  0.200000    0.00800000   5 t-inv F
  0.000000 -0.400000 -0.200000    0.00800000   5 t-inv F
  0.200000  0.000000  0.400000    0.00800000   5 t-inv F
 -0.200000  0.000000 -0.400000    0.00800000   5 t-inv F
  0.200000  0.200000 -0.200000    0.00800000   5 t-inv F
 -0.200000 -0.200000  0.200000    0.00800000   5 t-inv F
  0.400000  0.200000  0.400000    0.00800000   5 t-inv F
 -0.400000 -0.200000 -0.400000    0.00800000   5 t-inv F
  0.200000  0.400000  0.000000    0.00800000   5 t-inv F
 -0.200000 -0.400000  0.000000    0.00800000   5 t-inv F
  0.200000 -0.200000 -0.200000    0.00800000   5 t-inv F
 -0.200000  0.200000  0.200000    0.00800000   5 t-inv F
  0.400000  0.400000  0.200000    0.00800000   5 t-inv F
 -0.400000 -0.400000 -0.200000    0.00800000   5 t-inv F
  0.000000  0.200000  0.400000    0.00800000   5 t-inv F
  0.000000 -0.200000 -0.400000    0.00800000   5 t-inv F
 -0.200000  0.200000 -0.200000    0.00800000   5 t-inv F
  0.200000 -0.200000  0.200000    0.00800000   5 t-inv F
  0.200000  0.400000  0.400000    0.00800000   5 t-inv F
 -0.200000 -0.400000 -0.400000    0.00800000   5 t-inv F
  0.400000  0.000000  0.200000    0.00800000   5 t-inv F
 -0.400000  0.000000 -0.200000    0.00800000   5 t-inv F
  0.400000 -0.200000  0.000000    0.00800000   6 t-inv F
  0.000000 -0.400000  0.200000    0.00800000   6 t-inv F
  0.000000  0.400000 -0.200000    0.00800000   6 t-inv F
  0.200000  0.000000 -0.400000    0.00800000   6 t-inv F
 -0.200000  0.000000  0.400000    0.00800000   6 t-inv F
  0.200000  0.200000  0.600000    0.00800000   6 t-inv F
 -0.200000 -0.200000 -0.600000    0.00800000   6 t-inv F
 -0.400000 -0.600000 -0.400000    0.00800000   6 t-inv F
  0.400000  0.600000  0.400000    0.00800000   6 t-inv F
  0.200000 -0.400000  0.000000    0.00800000   6 t-inv F
 -0.200000  0.400000  0.000000    0.00800000   6 t-inv F
 -0.600000 -0.200000 -0.200000    0.00800000   6 t-inv F
  0.600000  0.200000  0.200000    0.00800000   6 t-inv F
 -0.400000 -0.400000 -0.600000    0.00800000   6 t-inv F
  0.400000  0.400000  0.600000    0.00800000   6 t-inv F
  0.000000  0.200000 -0.400000    0.00800000   6 t-inv F
  0.000000 -0.200000  0.400000    0.00800000   6 t-inv F
 -0.200000 -0.600000 -0.200000    0.00800000   6 t-inv F
  0.200000  0.600000  0.200000    0.00800000   6 t-inv F
 -0.600000 -0.400000 -0.400000    0.00800000   6 t-inv F
  0.600000  0.400000  0.400000    0.00800000   6 t-inv F
 -0.400000  0.000000  0.200000    0.00800000   6 t-inv F
  0.400000  0.000000 -0.200000    0.00800000   6 t-inv F
  0.200000 -0.200000  0.000000    0.00800000   7 t-inv F
  0.000000 -0.200000  0.200000    0.00800000   7 t-inv F
  0.000000  0.200000 -0.200000    0.00800000   7 t-inv F
  0.200000  0.000000 -0.200000    0.00800000   7 t-inv F
 -0.200000  0.000000  0.200000    0.00800000   7 t-inv F
  0.200000  0.200000  0.400000    0.00800000   7 t-inv F
 -0.200000 -0.200000 -0.400000    0.00800000   7 t-inv F
 -0.200000 -0.400000 -0.200000    0.00800000   7 t-inv F
  0.200000  0.400000  0.200000    0.00800000   7 t-inv F
 -0.400000 -0.200000 -0.200000    0.00800000   7 t-inv F
  0.400000  0.200000  0.200000    0.00800000   7 t-inv F
 -0.400000 -0.400000  0.000000    0.00800000   8 t-inv F
  0.000000  0.400000  0.400000    0.00800000   8 t-inv F
  0.000000 -0.400000 -0.400000    0.00800000   8 t-inv F
  0.400000  0.000000  0.400000    0.00800000   8 t-inv F
 -0.400000  0.000000 -0.400000    0.00800000   8 t-inv F
  0.400000 -0.400000  0.000000    0.00800000   9 t-inv F
  0.000000 -0.400000  0.400000    0.00800000   9 t-inv F
  0.000000  0.400000 -0.400000    0.00800000   9 t-inv F
  0.400000  0.000000 -0.400000    0.00800000   9 t-inv F
 -0.400000  0.000000  0.400000    0.00800000   9 t-inv F
  0.400000  0.400000  0.800000    0.00800000   9 t-inv F
 -0.400000 -0.400000 -0.800000    0.00800000   9 t-inv F
 -0.400000 -0.800000 -0.400000    0.00800000   9 t-inv F
  0.400000  0.800000  0.400000    0.00800000   9 t-inv F
 -0.800000 -0.400000 -0.400000    0.00800000   9 t-inv F
  0.800000  0.400000  0.400000    0.00800000   9 t-inv F
  0.400000 -0.400000 -0.200000    0.00800000  10 t-inv F
  0.200000 -0.400000  0.400000    0.00800000  10 t-inv F
 -0.200000  0.400000 -0.400000    0.00800000  10 t-inv F
  0.400000  0.200000 -0.400000    0.00800000  10 t-inv F
 -0.400000 -0.200000  0.400000    0.00800000  10 t-inv F
  0.400000  0.200000  0.800000    0.00800000  10 t-inv F
 -0.400000 -0.200000 -0.800000    0.00800000  10 t-inv F
 -0.400000 -0.800000 -0.600000    0.00800000  10 t-inv F
  0.400000  0.800000  0.600000    0.00800000  10 t-inv F
  0.200000  0.600000 -0.200000    0.00800000  10 t-inv F
 -0.200000 -0.600000  0.200000    0.00800000  10 t-inv F
  0.200000 -0.600000 -0.200000    0.00800000  10 t-inv F
 -0.200000  0.600000  0.200000    0.00800000  10 t-inv F
 -0.800000 -0.200000 -0.400000    0.00800000  10 t-inv F
  0.800000  0.200000  0.400000    0.00800000  10 t-inv F
 -0.600000 -0.400000 -0.800000    0.00800000  10 t-inv F
  0.600000  0.400000  0.800000    0.00800000  10 t-inv F
 -0.200000  0.200000  0.600000    0.00800000  10 t-inv F
  0.200000 -0.200000 -0.600000    0.00800000  10 t-inv F
 -0.400000 -0.800000 -0.200000    0.00800000  10 t-inv F
  0.400000  0.800000  0.200000    0.00800000  10 t-inv F
 -0.800000 -0.600000 -0.400000    0.00800000  10 t-inv F
  0.800000  0.600000  0.400000    0.00800000  10 t-inv F


--------------------------------------------------------------------------------------------------------




 Dimension of arrays:
   k-points           NKPTS =     10   k-points in BZ     NKDIM =     10   number of bands    NBANDS=    648
   number of dos      NEDOS =    301   number of ions     NIONS =     64
   non local maximal  LDIM  =      6   non local SUM 2l+1 LMDIM =     18
   total plane-waves  NPLWV = 343000
   max r-space proj   IRMAX =   5183   max aug-charges    IRDMAX=   9272
   dimension x,y,z NGX =    70 NGY =   70 NGZ =   70
   dimension x,y,z NGXF=   140 NGYF=  140 NGZF=  140
   support grid    NGXF=   140 NGYF=  140 NGZF=  140
   ions per type =              64
 NGX,Y,Z   is equivalent  to a cutoff of  11.01, 11.01, 11.01 a.u.
 NGXF,Y,Z  is equivalent  to a cutoff of  22.02, 22.02, 22.02 a.u.


 I would recommend the setting:
   dimension x,y,z NGX =    66 NGY =   66 NGZ =   66
 SYSTEM =  phonon of Zr bcc - omiga                
 POSCAR =  Supercell by Yi Wang                    

 Startparameter for this run:
   NWRITE =      0    write-flag & timer
   PREC   = a         normal or accurate (medium, high low for compatibility)
   ISTART =      0    job   : 0-new  1-cont  2-samecut
   ICHARG =      2    charge: 1-file 2-atom 10-const
   ISPIN  =      2    spin polarized calculation?
   LNONCOLLINEAR =      F non collinear calculations
   LSORBIT =      F    spin-orbit coupling
   INIWAV =      1    electr: 0-lowe 1-rand  2-diag
   LASPH  =      F    aspherical Exc in radial PAW
   METAGGA=      F    non-selfconsistent MetaGGA calc.

 Electronic Relaxation 1
   ENCUT  =  367.9 eV  27.04 Ry    5.20 a.u.  16.53 16.53 16.53*2*pi/ulx,y,z
   ENINI  =  367.9     initial cutoff
   ENAUG  =  703.4 eV  augmentation charge cutoff
   NELM   =     60;   NELMIN=  2; NELMDL=  0     # of ELM steps 
   EDIFF  = 0.1E-05   stopping-criterion for ELM
   LREAL  =      T    real-space projection
   NLSPLINE    = F    spline interpolate recip. space projectors
   LCOMPAT=      F    compatible to vasp.4.4
   GGA_COMPAT  = T    GGA compatible to vasp.4.4-vasp.4.6
   LMAXPAW     = -100 max onsite density
   LMAXMIX     =    2 max onsite mixed and CHGCAR
   VOSKOWN=      0    Vosko Wilk Nusair interpolation
   ROPT   =   -0.00025
 Ionic relaxation
   EDIFFG = 0.1E-04   stopping-criterion for IOM
   NSW    =    805    number of steps for IOM
   NBLOCK =      1;   KBLOCK =      1    inner block; outer block 
   IBRION =      6    ionic relax: 0-MD 1-quasi-New 2-CG
   NFREE  =      2    steps in history (QN), initial steepest desc. (CG)
   ISIF   =      2    stress and relaxation
   IWAVPR =     11    prediction:  0-non 1-charg 2-wave 3-comb
   ISYM   =      2    0-nonsym 1-usesym 2-fastsym
   LCORR  =      T    Harris-Foulkes like correction to forces

   POTIM  = 0.5000    time-step for ionic-motion
   TEIN   =    0.0    initial temperature
   TEBEG  =    0.0;   TEEND  =   0.0 temperature during run
   SMASS  =  -3.00    Nose mass-parameter (am)
   estimated Nose-frequenzy (Omega)   =  0.10E-29 period in steps =****** mass=  -0.255E-26a.u.
   SCALEE = 1.0000    scale energy and forces
   NPACO  =    256;   APACO  = 16.0  distance and # of slots for P.C.
   PSTRESS=    0.0 pullay stress

  Mass of Ions in am
   POMASS =  58.69
  Ionic Valenz
   ZVAL   =  16.00
  Atomic Wigner-Seitz radii
   RWIGS  =  -1.00
  virtual crystal weights 
   VCA    =   1.00
   NELECT =    1024.0000    total number of electrons
   NUPDOWN=      -1.0000    fix difference up-down

 DOS related values:
   EMIN   =  10.00;   EMAX   =-10.00  energy-range for DOS
   EFERMI =   0.00
   ISMEAR =     1;   SIGMA  =   0.20  broadening in eV -4-tet -1-fermi 0-gaus

 Electronic relaxation 2 (details)
   IALGO  =     38    algorithm
   LDIAG  =      T    sub-space diagonalisation (order eigenvalues)
   LSUBROT=      F    optimize rotation matrix (better conditioning)
   TURBO    =      0    0=normal 1=particle mesh
   IRESTART =      0    0=no restart 2=restart with 2 vectors
   NREBOOT  =      0    no. of reboots
   NMIN     =      0    reboot dimension
   EREF     =   0.00    reference energy to select bands
   IMIX   =      4    mixing-type and parameters
     AMIX     =   0.40;   BMIX     =  1.00
     AMIX_MAG =   1.60;   BMIX_MAG =  1.00
     AMIN     =   0.10
     WC   =   100.;   INIMIX=   1;  MIXPRE=   1;  MAXMIX= -45

 Intra band minimization:
   WEIMIN = 0.0010     energy-eigenvalue tresh-hold
   EBREAK =  0.39E-09  absolut break condition
   DEPER  =   0.30     relativ break condition  

   TIME   =   0.40     timestep for ELM

  volume/ion in A,a.u.               =      13.04        88.01
  Fermi-wavevector in a.u.,A,eV,Ry     =   1.752548  3.311835 41.789251  3.071423
  Thomas-Fermi vector in A             =   2.822857
 
 Write flags
   LWAVE  =      T    write WAVECAR
   LCHARG =      T    write CHGCAR
   LVTOT  =      F    write LOCPOT, total local potential
   LVHAR  =      F    write LOCPOT, Hartree potential only
   LELF   =      F    write electronic localiz. function (ELF)
   LORBIT =      0    0 simple, 1 ext, 2 COOP (PROOUT)


 Dipole corrections
   LMONO  =      F    monopole corrections only (constant potential shift)
   LDIPOL =      F    correct potential (dipole corrections)
   IDIPOL =      0    1-x, 2-y, 3-z, 4-all directions 
   EPSILON=  1.0000000 bulk dielectric constant

 Exchange correlation treatment:
   GGA     =    --    GGA type
   LEXCH   =     8    internal setting for exchange type
   VOSKOWN=      0    Vosko Wilk Nusair interpolation
   LHFCALC =     F    Hartree Fock is set to
   LHFONE  =     F    Hartree Fock one center treatment
   AEXX    =    0.0000 exact exchange contribution

 Linear response parameters
   LEPSILON=     F    determine dielectric tensor
   LRPA    =     F    only Hartree local field effects (RPA)
   LNABLA  =     F    use nabla operator in PAW spheres
   LVEL    =     F    velocity operator in full k-point grid
   LINTERFAST=   F  fast interpolation
   KINTER  =     0    interpolate to denser k-point grid
   CSHIFT  =0.1000    complex shift for real part using Kramers Kronig
   OMEGAMAX=  -1.0    maximum frequency
   DEG_THRESHOLD= 0.2000000E-02 threshold for treating states as degnerate
   RTIME   =    0.100 relaxation time in fs

 Orbital magnetization related:
   ORBITALMAG=     F  switch on orbital magnetization
   LCHIMAG   =     F  perturbation theory with respect to B field
   DQ        =  0.001000  dq finite difference perturbation B field



--------------------------------------------------------------------------------------------------------


 finite differences with symmetry
 charge density and potential will be updated during run
 spin polarized calculation
 Variant of blocked Davidson
 Davidson routine will perform the subspace rotation
 perform sub-space diagonalisation
    after iterative eigenvector-optimisation
 modified Broyden-mixing scheme, WC =      100.0
 initial mixing is a Kerker type mixing with AMIX =  0.4000 and BMIX =      1.0000
 Hartree-type preconditioning will be used
 using additional bands          136
 real space projection scheme for non local part
 use partial core corrections
 calculate Harris-corrections to forces 
   (improved forces if not selfconsistent)
 use gradient corrections 
 use of overlap-Matrix (Vanderbilt PP)
 Methfessel and Paxton  Order N= 1 SIGMA  =   0.20


--------------------------------------------------------------------------------------------------------


  energy-cutoff  :      367.94
  volume of cell :      834.67
      direct lattice vectors                 reciprocal lattice vectors
     0.000000000  7.473000000  7.473000000    -0.066907534  0.066907534  0.066907534
     7.473000000  0.000000000  7.473000000     0.066907534 -0.066907534  0.066907534
     7.473000000  7.473000000  0.000000000     0.066907534  0.066907534 -0.066907534

  length of vectors
    10.568417952 10.568417952 10.568417952     0.115887248  0.115887248  0.115887248


 
 k-points in units of 2pi/SCALE and weight: Zr 15x15x15                             
   0.00000000  0.00000000  0.00000000       0.008
  -0.01338151  0.01338151  0.01338151       0.064
  -0.02676301  0.02676301  0.02676301       0.064
   0.00000000  0.00000000  0.02676301       0.048
  -0.01338151  0.01338151  0.04014452       0.192
   0.04014452 -0.04014452 -0.01338151       0.192
   0.02676301 -0.02676301  0.00000000       0.096
   0.00000000  0.00000000  0.05352603       0.048
   0.05352603 -0.05352603  0.00000000       0.096
   0.06690753 -0.04014452 -0.01338151       0.192
 
 k-points in reciprocal lattice and weights: Zr 15x15x15                             
   0.00000000  0.00000000  0.00000000       0.008
   0.20000000  0.00000000  0.00000000       0.064
   0.40000000  0.00000000  0.00000000       0.064
   0.20000000  0.20000000  0.00000000       0.048
   0.40000000  0.20000000  0.00000000       0.192
  -0.40000000  0.20000000  0.00000000       0.192
  -0.20000000  0.20000000  0.00000000       0.096
   0.40000000  0.40000000  0.00000000       0.048
  -0.40000000  0.40000000  0.00000000       0.096
  -0.40000000  0.40000000  0.20000000       0.192
 
 position of ions in fractional coordinates (direct lattice) 
   0.00000000  0.00000000  0.00000000
   0.00000000  0.00000000  0.25000000
   0.00000000  0.00000000  0.50000000
   0.00000000  0.00000000  0.75000000
   0.00000000  0.25000000  0.00000000
   0.00000000  0.25000000  0.25000000
   0.00000000  0.25000000  0.50000000
   0.00000000  0.25000000  0.75000000
   0.00000000  0.50000000  0.00000000
   0.00000000  0.50000000  0.25000000
   0.00000000  0.50000000  0.50000000
   0.00000000  0.50000000  0.75000000
   0.00000000  0.75000000  0.00000000
   0.00000000  0.75000000  0.25000000
   0.00000000  0.75000000  0.50000000
   0.00000000  0.75000000  0.75000000
   0.25000000  0.00000000  0.00000000
   0.25000000  0.00000000  0.25000000
   0.25000000  0.00000000  0.50000000
   0.25000000  0.00000000  0.75000000
   0.25000000  0.25000000  0.00000000
   0.25000000  0.25000000  0.25000000
   0.25000000  0.25000000  0.50000000
   0.25000000  0.25000000  0.75000000
   0.25000000  0.50000000  0.00000000
   0.25000000  0.50000000  0.25000000
   0.25000000  0.50000000  0.50000000
   0.25000000  0.50000000  0.75000000
   0.25000000  0.75000000  0.00000000
   0.25000000  0.75000000  0.25000000
   0.25000000  0.75000000  0.50000000
   0.25000000  0.75000000  0.75000000
   0.50000000  0.00000000  0.00000000
   0.50000000  0.00000000  0.25000000
   0.50000000  0.00000000  0.50000000
   0.50000000  0.00000000  0.75000000
   0.50000000  0.25000000  0.00000000
   0.50000000  0.25000000  0.25000000
   0.50000000  0.25000000  0.50000000
   0.50000000  0.25000000  0.75000000
   0.50000000  0.50000000  0.00000000
   0.50000000  0.50000000  0.25000000
   0.50000000  0.50000000  0.50000000
   0.50000000  0.50000000  0.75000000
   0.50000000  0.75000000  0.00000000
   0.50000000  0.75000000  0.25000000
   0.50000000  0.75000000  0.50000000
   0.50000000  0.75000000  0.75000000
   0.75000000  0.00000000  0.00000000
   0.75000000  0.00000000  0.25000000
   0.75000000  0.00000000  0.50000000
   0.75000000  0.00000000  0.75000000
   0.75000000  0.25000000  0.00000000
   0.75000000  0.25000000  0.25000000
   0.75000000  0.25000000  0.50000000
   0.75000000  0.25000000  0.75000000
   0.75000000  0.50000000  0.00000000
   0.75000000  0.50000000  0.25000000
   0.75000000  0.50000000  0.50000000
   0.75000000  0.50000000  0.75000000
   0.75000000  0.75000000  0.00000000
   0.75000000  0.75000000  0.25000000
   0.75000000  0.75000000  0.50000000
   0.75000000  0.75000000  0.75000000
 
 position of ions in cartesian coordinates  (Angst):
   0.00000000  0.00000000  0.00000000
   1.86825000  1.86825000  0.00000000
   3.73650000  3.73650000  0.00000000
   5.60475000  5.60475000  0.00000000
   1.86825000  0.00000000  1.86825000
   3.73650000  1.86825000  1.86825000
   5.60475000  3.73650000  1.86825000
   7.47300000  5.60475000  1.86825000
   3.73650000  0.00000000  3.73650000
   5.60475000  1.86825000  3.73650000
   7.47300000  3.73650000  3.73650000
   9.34125000  5.60475000  3.73650000
   5.60475000  0.00000000  5.60475000
   7.47300000  1.86825000  5.60475000
   9.34125000  3.73650000  5.60475000
  11.20950000  5.60475000  5.60475000
   0.00000000  1.86825000  1.86825000
   1.86825000  3.73650000  1.86825000
   3.73650000  5.60475000  1.86825000
   5.60475000  7.47300000  1.86825000
   1.86825000  1.86825000  3.73650000
   3.73650000  3.73650000  3.73650000
   5.60475000  5.60475000  3.73650000
   7.47300000  7.47300000  3.73650000
   3.73650000  1.86825000  5.60475000
   5.60475000  3.73650000  5.60475000
   7.47300000  5.60475000  5.60475000
   9.34125000  7.47300000  5.60475000
   5.60475000  1.86825000  7.47300000
   7.47300000  3.73650000  7.47300000
   9.34125000  5.60475000  7.47300000
  11.20950000  7.47300000  7.47300000
   0.00000000  3.73650000  3.73650000
   1.86825000  5.60475000  3.73650000
   3.73650000  7.47300000  3.73650000
   5.60475000  9.34125000  3.73650000
   1.86825000  3.73650000  5.60475000
   3.73650000  5.60475000  5.60475000
   5.60475000  7.47300000  5.60475000
   7.47300000  9.34125000  5.60475000
   3.73650000  3.73650000  7.47300000
   5.60475000  5.60475000  7.47300000
   7.47300000  7.47300000  7.47300000
   9.34125000  9.34125000  7.47300000
   5.60475000  3.73650000  9.34125000
   7.47300000  5.60475000  9.34125000
   9.34125000  7.47300000  9.34125000
  11.20950000  9.34125000  9.34125000
   0.00000000  5.60475000  5.60475000
   1.86825000  7.47300000  5.60475000
   3.73650000  9.34125000  5.60475000
   5.60475000 11.20950000  5.60475000
   1.86825000  5.60475000  7.47300000
   3.73650000  7.47300000  7.47300000
   5.60475000  9.34125000  7.47300000
   7.47300000 11.20950000  7.47300000
   3.73650000  5.60475000  9.34125000
   5.60475000  7.47300000  9.34125000
   7.47300000  9.34125000  9.34125000
   9.34125000 11.20950000  9.34125000
   5.60475000  5.60475000 11.20950000
   7.47300000  7.47300000 11.20950000
   9.34125000  9.34125000 11.20950000
  11.20950000 11.20950000 11.20950000
 


--------------------------------------------------------------------------------------------------------


 k-point  1 :   0.0000 0.0000 0.0000  plane waves:   13371
 k-point  2 :   0.2000 0.0000 0.0000  plane waves:   13398
 k-point  3 :   0.4000 0.0000 0.0000  plane waves:   13362
 k-point  4 :   0.2000 0.2000 0.0000  plane waves:   13411
 k-point  5 :   0.4000 0.2000 0.0000  plane waves:   13369
 k-point  6 :  -0.4000 0.2000 0.0000  plane waves:   13375
 k-point  7 :  -0.2000 0.2000 0.0000  plane waves:   13377
 k-point  8 :   0.4000 0.4000 0.0000  plane waves:   13348
 k-point  9 :  -0.4000 0.4000 0.0000  plane waves:   13364
 k-point 10 :  -0.4000 0.4000 0.2000  plane waves:   13391

 maximum and minimum number of plane-waves per node :     13411    13348

 maximum number of plane-waves:     13411
 maximum index in each direction: 
   IXMAX=   16   IYMAX=   16   IZMAX=   16
   IXMIN=  -16   IYMIN=  -16   IZMIN=  -16

 NGX is ok and might be reduce to  66
 NGY is ok and might be reduce to  66
 NGZ is ok and might be reduce to  66

 serial   3D FFT for wavefunctions
 parallel 3D FFT for charge:
    minimum data exchange during FFTs selected (reduces bandwidth)


 total amount of memory used by VASP on root node   532340. kBytes
========================================================================

   base      :      30000. kBytes
   nonlr-proj:      56154. kBytes
   fftplans  :      13314. kBytes
   grid      :      53280. kBytes
   one-center:       1990. kBytes
   wavefun   :     377602. kBytes
 
     INWAV:  cpu time    0.0000: real time    0.0000
 Broyden mixing: mesh for mixing (old mesh)
   NGX = 33   NGY = 33   NGZ = 33
  (NGX  =140   NGY  =140   NGZ  =140)
  gives a total of  35937 points

 initial charge density was supplied:
 charge density of overlapping atoms calculated
 number of electron    1024.0000000 magnetization      64.0000000
 keeping initial charge density in first step


--------------------------------------------------------------------------------------------------------


 Maximum index for non-local projection operator         5017
 Maximum index for augmentation-charges         1343 (set IRDMAX)


--------------------------------------------------------------------------------------------------------


 First call to EWALD:  gamma=   0.188
 Maximum number of real-space cells 3x 3x 3
 Maximum number of reciprocal cells 3x 3x 3

 FEWALD executed in parallel
    FEWALD:  cpu time    0.0050: real time    0.0043


----------------------------------------- Iteration    1(   1)  ---------------------------------------


    POTLOK:  cpu time    0.4599: real time    0.4600
    SETDIJ:  cpu time    0.0550: real time    0.0545
     EDDAV:  cpu time  268.8861: real time  268.7516
       DOS:  cpu time    0.0060: real time    0.0054
    --------------------------------------------
      LOOP:  cpu time  269.4080: real time  269.2884

 eigenvalue-minimisations  : 30632
 total energy-change (2. order) : 0.1330494E+05  (-0.5622171E+05)
 number of electron    1024.0000000 magnetization      64.0000000
 augmentation part     1024.0000000 magnetization      64.0000000

 Free energy of the ion-electron system (eV)
  ---------------------------------------------------
  alpha Z        PSCENC =      8266.97428417
  Ewald energy   TEWEN  =   -144746.26977670
  -Hartree energ DENC   =    -67168.00643356
  -exchange      EXHF   =         0.00000000
  -V(xc)+E(xc)   XCENC  =      5681.52194871
  PAW double counting   =    172361.15642774  -181272.45834873
  entropy T*S    EENTRO =        -0.00942585
  eigenvalues    EBANDS =     -3831.25988406
  atomic energy  EATOM  =    224013.29143063
  Solvation  Ediel_sol  =         0.00000000
  ---------------------------------------------------
  free energy    TOTEN  =     13304.94022235 eV

  energy without entropy =    13304.94964821  energy(sigma->0) =    13304.94336431


--------------------------------------------------------------------------------------------------------




----------------------------------------- Iteration    1(   2)  ---------------------------------------


     EDDAV:  cpu time  236.8850: real time  236.7601
       DOS:  cpu time    0.0060: real time    0.0053
    --------------------------------------------
      LOOP:  cpu time  236.8930: real time  236.7662

 eigenvalue-minimisations  : 25920
 total energy-change (2. order) :-0.1262813E+05  (-0.1225144E+05)
 number of electron    1024.0000000 magnetization      64.0000000
 augmentation part     1024.0000000 magnetization      64.0000000

 Free energy of the ion-electron system (eV)
  ---------------------------------------------------
  alpha Z        PSCENC =      8266.97428417
  Ewald energy   TEWEN  =   -144746.26977670
  -Hartree energ DENC   =    -67168.00643356
  -exchange      EXHF   =         0.00000000
  -V(xc)+E(xc)   XCENC  =      5681.52194871
  PAW double counting   =    172361.15642774  -181272.45834873
  entropy T*S    EENTRO =        -0.00236280
  eigenvalues    EBANDS =    -16459.39820061
  atomic energy  EATOM  =    224013.29143063
  Solvation  Ediel_sol  =         0.00000000
  ---------------------------------------------------
  free energy    TOTEN  =       676.80896887 eV

  energy without entropy =      676.81133166  energy(sigma->0) =      676.80975647


--------------------------------------------------------------------------------------------------------




----------------------------------------- Iteration    1(   3)  ---------------------------------------


     EDDAV:  cpu time  243.8819: real time  243.9575
       DOS:  cpu time    0.0060: real time    0.0059
    --------------------------------------------
      LOOP:  cpu time  243.8879: real time  243.9642

 eigenvalue-minimisations  : 26856
 total energy-change (2. order) :-0.1039912E+04  (-0.8560011E+03)
 number of electron    1024.0000000 magnetization      64.0000000
 augmentation part     1024.0000000 magnetization      64.0000000

 Free energy of the ion-electron system (eV)
  ---------------------------------------------------
  alpha Z        PSCENC =      8266.97428417
  Ewald energy   TEWEN  =   -144746.26977670
  -Hartree energ DENC   =    -67168.00643356
  -exchange      EXHF   =         0.00000000
  -V(xc)+E(xc)   XCENC  =      5681.52194871
  PAW double counting   =    172361.15642774  -181272.45834873
  entropy T*S    EENTRO =         0.06890796
  eigenvalues    EBANDS =    -17499.38128820
  atomic energy  EATOM  =    224013.29143063
  Solvation  Ediel_sol  =         0.00000000
  ---------------------------------------------------
  free energy    TOTEN  =      -363.10284797 eV

  energy without entropy =     -363.17175593  energy(sigma->0) =     -363.12581729


--------------------------------------------------------------------------------------------------------




----------------------------------------- Iteration    1(   4)  ---------------------------------------


     EDDAV:  cpu time  251.4618: real time  251.3887
       DOS:  cpu time    0.0060: real time    0.0060
    --------------------------------------------
      LOOP:  cpu time  251.4688: real time  251.3954

 eigenvalue-minimisations  : 27936
 total energy-change (2. order) :-0.5429293E+02  (-0.5285891E+02)
 number of electron    1024.0000000 magnetization      64.0000000
 augmentation part     1024.0000000 magnetization      64.0000000

 Free energy of the ion-electron system (eV)
  ---------------------------------------------------
  alpha Z        PSCENC =      8266.97428417
  Ewald energy   TEWEN  =   -144746.26977670
  -Hartree energ DENC   =    -67168.00643356
  -exchange      EXHF   =         0.00000000
  -V(xc)+E(xc)   XCENC  =      5681.52194871
  PAW double counting   =    172361.15642774  -181272.45834873
  entropy T*S    EENTRO =         0.13067353
  eigenvalues    EBANDS =    -17553.73598384
  atomic energy  EATOM  =    224013.29143063
  Solvation  Ediel_sol  =         0.00000000
  ---------------------------------------------------
  free energy    TOTEN  =      -417.39577805 eV

  energy without entropy =     -417.52645158  energy(sigma->0) =     -417.43933589


--------------------------------------------------------------------------------------------------------




----------------------------------------- Iteration    1(   5)  ---------------------------------------


     EDDAV:  cpu time  248.4642: real time  248.6697
       DOS:  cpu time    0.0060: real time    0.0059
    CHARGE:  cpu time   11.8702: real time   11.8896
    MIXING:  cpu time    0.0100: real time    0.0091
    --------------------------------------------
      LOOP:  cpu time  260.3514: real time  260.5751

 eigenvalue-minimisations  : 27440
 total energy-change (2. order) :-0.8447098E+00  (-0.8438410E+00)
 number of electron    1023.9999815 magnetization      60.8166881
 augmentation part      572.4751217 magnetization      47.6505949

 Broyden mixing:
  rms(total) = 0.68245E+01    rms(broyden)= 0.68216E+01
  rms(prec ) = 0.91610E+01
  weight for this iteration     100.00

 Free energy of the ion-electron system (eV)
  ---------------------------------------------------
  alpha Z        PSCENC =      8266.97428417
  Ewald energy   TEWEN  =   -144746.26977670
  -Hartree energ DENC   =    -67168.00643356
  -exchange      EXHF   =         0.00000000
  -V(xc)+E(xc)   XCENC  =      5681.52194871
  PAW double counting   =    172361.15642774  -181272.45834873
  entropy T*S    EENTRO =         0.13122173
  eigenvalues    EBANDS =    -17554.58124185
  atomic energy  EATOM  =    224013.29143063
  Solvation  Ediel_sol  =         0.00000000
  ---------------------------------------------------
  free energy    TOTEN  =      -418.24048785 eV

  energy without entropy =     -418.37170959  energy(sigma->0) =     -418.28422843


--------------------------------------------------------------------------------------------------------




----------------------------------------- Iteration    1(   6)  ---------------------------------------


    POTLOK:  cpu time    0.4579: real time    0.4697
    SETDIJ:  cpu time    0.0550: real time    0.0541
     EDDAV:  cpu time  246.8635: real time  246.9915
       DOS:  cpu time    0.0060: real time    0.0061
    CHARGE:  cpu time   11.3333: real time   11.3301
    MIXING:  cpu time    0.0100: real time    0.0096
    --------------------------------------------
      LOOP:  cpu time  258.7267: real time  258.8620

 eigenvalue-minimisations  : 27224
 total energy-change (2. order) : 0.1829112E+02  (-0.6967982E+02)
 number of electron    1023.9999761 magnetization      53.6749889
 augmentation part      637.0157016 magnetization      49.6305760

 Broyden mixing:
  rms(total) = 0.63164E+01    rms(broyden)= 0.63158E+01
  rms(prec ) = 0.78454E+01
  weight for this iteration     100.00

 eigenvalues of (default mixing * dielectric matrix)
  average eigenvalue GAMMA=   0.4843
  0.4843

 Free energy of the ion-electron system (eV)
  ---------------------------------------------------
  alpha Z        PSCENC =      8266.97428417
  Ewald energy   TEWEN  =   -144746.26977670
  -Hartree energ DENC   =    -63753.95252666
  -exchange      EXHF   =         0.00000000
  -V(xc)+E(xc)   XCENC  =      5554.45837144
  PAW double counting   =    166858.11703698  -175433.58770229
  entropy T*S    EENTRO =        -0.44111130
  eigenvalues    EBANDS =    -21158.53937443
  atomic energy  EATOM  =    224013.29143063
  Solvation  Ediel_sol  =         0.00000000
  ---------------------------------------------------
  free energy    TOTEN  =      -399.94936818 eV

  energy without entropy =     -399.50825688  energy(sigma->0) =     -399.80233108


--------------------------------------------------------------------------------------------------------




----------------------------------------- Iteration    1(   7)  ---------------------------------------


    POTLOK:  cpu time    0.4509: real time    0.4520
    SETDIJ:  cpu time    0.0550: real time    0.0541
     EDDAV:  cpu time  245.1877: real time  245.1488
       DOS:  cpu time    0.0070: real time    0.0060
    CHARGE:  cpu time   11.5432: real time   11.5349
    MIXING:  cpu time    0.0110: real time    0.0098
    --------------------------------------------
      LOOP:  cpu time  257.2559: real time  257.2066

 eigenvalue-minimisations  : 27112
 total energy-change (2. order) : 0.4295652E+02  (-0.1560427E+02)
 number of electron    1023.9999788 magnetization      47.6999324
 augmentation part      607.2667841 magnetization      39.0917247

 Broyden mixing:
  rms(total) = 0.57863E+00    rms(broyden)= 0.57770E+00
  rms(prec ) = 0.66108E+00
  weight for this iteration     100.00

 eigenvalues of (default mixing * dielectric matrix)
  average eigenvalue GAMMA=   0.7597
  0.9782  0.5413

 Free energy of the ion-electron system (eV)
  ---------------------------------------------------
  alpha Z        PSCENC =      8266.97428417
  Ewald energy   TEWEN  =   -144746.26977670
  -Hartree energ DENC   =    -65142.55952722
  -exchange      EXHF   =         0.00000000
  -V(xc)+E(xc)   XCENC  =      5605.18164847
  PAW double counting   =    169630.27325468  -178491.16513113
  entropy T*S    EENTRO =        -0.28561273
  eigenvalues    EBANDS =    -19492.43342320
  atomic energy  EATOM  =    224013.29143063
  Solvation  Ediel_sol  =         0.00000000
  ---------------------------------------------------
  free energy    TOTEN  =      -356.99285302 eV

  energy without entropy =     -356.70724029  energy(sigma->0) =     -356.89764878


--------------------------------------------------------------------------------------------------------




----------------------------------------- Iteration    1(   8)  ---------------------------------------


    POTLOK:  cpu time    0.4499: real time    0.4505
    SETDIJ:  cpu time    0.0550: real time    0.0541
     EDDAV:  cpu time  244.9158: real time  244.8105
       DOS:  cpu time    0.0060: real time    0.0060
    CHARGE:  cpu time   11.5003: real time   11.4908
    MIXING:  cpu time    0.0100: real time    0.0101
    --------------------------------------------
      LOOP:  cpu time  256.9369: real time  256.8228

 eigenvalue-minimisations  : 27072
 total energy-change (2. order) :-0.2016953E+00  (-0.1588548E+00)
 number of electron    1023.9999789 magnetization      43.1669770
 augmentation part      606.4002567 magnetization      35.8316445

 Broyden mixing:
  rms(total) = 0.30333E+00    rms(broyden)= 0.30323E+00
  rms(prec ) = 0.38838E+00
  weight for this iteration     100.00

 eigenvalues of (default mixing * dielectric matrix)
  average eigenvalue GAMMA=   1.0812
  0.5473  0.8710  1.8254

 Free energy of the ion-electron system (eV)
  ---------------------------------------------------
  alpha Z        PSCENC =      8266.97428417
  Ewald energy   TEWEN  =   -144746.26977670
  -Hartree energ DENC   =    -65056.05532189
  -exchange      EXHF   =         0.00000000
  -V(xc)+E(xc)   XCENC  =      5602.86239628
  PAW double counting   =    170004.14297127  -178952.88892217
  entropy T*S    EENTRO =        -0.27842358
  eigenvalues    EBANDS =    -19488.97318631
  atomic energy  EATOM  =    224013.29143063
  Solvation  Ediel_sol  =         0.00000000
  ---------------------------------------------------
  free energy    TOTEN  =      -357.19454830 eV

  energy without entropy =     -356.91612473  energy(sigma->0) =     -357.10174044


--------------------------------------------------------------------------------------------------------




----------------------------------------- Iteration    1(   9)  ---------------------------------------


    POTLOK:  cpu time    0.4489: real time    0.4556
    SETDIJ:  cpu time    0.0550: real time    0.0541
     EDDAV:  cpu time  249.3531: real time  249.2741
       DOS:  cpu time    0.0060: real time    0.0061
    CHARGE:  cpu time   11.4743: real time   11.4649
    MIXING:  cpu time    0.0110: real time    0.0106
    --------------------------------------------
      LOOP:  cpu time  261.3493: real time  261.2663

 eigenvalue-minimisations  : 27712
 total energy-change (2. order) : 0.1553820E-01  (-0.2397037E-01)
 number of electron    1023.9999787 magnetization      42.9385621
 augmentation part      607.1945519 magnetization      36.7882249

 Broyden mixing:
  rms(total) = 0.98661E-01    rms(broyden)= 0.98648E-01
  rms(prec ) = 0.10056E+00
  weight for this iteration     100.00

 eigenvalues of (default mixing * dielectric matrix)
  average eigenvalue GAMMA=   1.1255
  2.3207  1.0132  0.5529  0.6152

 Free energy of the ion-electron system (eV)
  ---------------------------------------------------
  alpha Z        PSCENC =      8266.97428417
  Ewald energy   TEWEN  =   -144746.26977670
  -Hartree energ DENC   =    -64918.46128528
  -exchange      EXHF   =         0.00000000
  -V(xc)+E(xc)   XCENC  =      5598.62941646
  PAW double counting   =    170269.68469215  -179281.74922110
  entropy T*S    EENTRO =        -0.28480884
  eigenvalues    EBANDS =    -19558.99374160
  atomic energy  EATOM  =    224013.29143063
  Solvation  Ediel_sol  =         0.00000000
  ---------------------------------------------------
  free energy    TOTEN  =      -357.17901010 eV

  energy without entropy =     -356.89420126  energy(sigma->0) =     -357.08407382


--------------------------------------------------------------------------------------------------------




----------------------------------------- Iteration    1(  10)  ---------------------------------------


    POTLOK:  cpu time    0.4499: real time    0.4501
    SETDIJ:  cpu time    0.0550: real time    0.0541
     EDDAV:  cpu time  261.5342: real time  261.5476
       DOS:  cpu time    0.0060: real time    0.0059
    CHARGE:  cpu time   11.4733: real time   11.4638
    MIXING:  cpu time    0.0110: real time    0.0109
    --------------------------------------------
      LOOP:  cpu time  273.5294: real time  273.5334

 eigenvalue-minimisations  : 29456
 total energy-change (2. order) :-0.4700035E-02  (-0.1213737E-02)
 number of electron    1023.9999788 magnetization      43.2867028
 augmentation part      607.2092433 magnetization      37.2152869

 Broyden mixing:
  rms(total) = 0.25147E-01    rms(broyden)= 0.25135E-01
  rms(prec ) = 0.29278E-01
  weight for this iteration     100.00

 eigenvalues of (default mixing * dielectric matrix)
  average eigenvalue GAMMA=   1.1083
  2.3149  1.1641  0.8828  0.5475  0.6322

 Free energy of the ion-electron system (eV)
  ---------------------------------------------------
  alpha Z        PSCENC =      8266.97428417
  Ewald energy   TEWEN  =   -144746.26977670
  -Hartree energ DENC   =    -64907.98979530
  -exchange      EXHF   =         0.00000000
  -V(xc)+E(xc)   XCENC  =      5598.42675597
  PAW double counting   =    170345.46387602  -179363.87436078
  entropy T*S    EENTRO =        -0.28380729
  eigenvalues    EBANDS =    -19562.92231686
  atomic energy  EATOM  =    224013.29143063
  Solvation  Ediel_sol  =         0.00000000
  ---------------------------------------------------
  free energy    TOTEN  =      -357.18371014 eV

  energy without entropy =     -356.89990284  energy(sigma->0) =     -357.08910771


--------------------------------------------------------------------------------------------------------




----------------------------------------- Iteration    1(  11)  ---------------------------------------


    POTLOK:  cpu time    0.4529: real time    0.4524
    SETDIJ:  cpu time    0.0550: real time    0.0541
     EDDAV:  cpu time  245.6437: real time  245.5279
       DOS:  cpu time    0.0060: real time    0.0060
    CHARGE:  cpu time   11.4393: real time   11.4329
    MIXING:  cpu time    0.0120: real time    0.0113
    --------------------------------------------
      LOOP:  cpu time  257.6088: real time  257.4854

 eigenvalue-minimisations  : 27160
 total energy-change (2. order) :-0.1039325E-02  (-0.3271535E-03)
 number of electron    1023.9999788 magnetization      43.4622281
 augmentation part      607.0910540 magnetization      37.3237922

 Broyden mixing:
  rms(total) = 0.10395E-01    rms(broyden)= 0.10361E-01
  rms(prec ) = 0.12124E-01
  weight for this iteration     100.00

 eigenvalues of (default mixing * dielectric matrix)
  average eigenvalue GAMMA=   1.2259
  2.2920  2.1351  1.0285  0.5465  0.7157  0.6375

 Free energy of the ion-electron system (eV)
  ---------------------------------------------------
  alpha Z        PSCENC =      8266.97428417
  Ewald energy   TEWEN  =   -144746.26977670
  -Hartree energ DENC   =    -64914.46169479
  -exchange      EXHF   =         0.00000000
  -V(xc)+E(xc)   XCENC  =      5598.70579166
  PAW double counting   =    170412.66285639  -179430.50097636
  entropy T*S    EENTRO =        -0.28225550
  eigenvalues    EBANDS =    -19557.30440897
  atomic energy  EATOM  =    224013.29143063
  Solvation  Ediel_sol  =         0.00000000
  ---------------------------------------------------
  free energy    TOTEN  =      -357.18474946 eV

  energy without entropy =     -356.90249396  energy(sigma->0) =     -357.09066430


--------------------------------------------------------------------------------------------------------




----------------------------------------- Iteration    1(  12)  ---------------------------------------


    POTLOK:  cpu time    0.4519: real time    0.4524
    SETDIJ:  cpu time    0.0550: real time    0.0541
     EDDAV:  cpu time  262.8370: real time  262.6815
       DOS:  cpu time    0.0060: real time    0.0059
    CHARGE:  cpu time   11.4953: real time   11.4861
    MIXING:  cpu time    0.0120: real time    0.0118
    --------------------------------------------
      LOOP:  cpu time  274.8572: real time  274.6927

 eigenvalue-minimisations  : 29600
 total energy-change (2. order) :-0.2403561E-03  (-0.2898069E-04)
 number of electron    1023.9999788 magnetization      43.4475563
 augmentation part      607.1092622 magnetization      37.2728105

 Broyden mixing:
  rms(total) = 0.49227E-02    rms(broyden)= 0.49225E-02
  rms(prec ) = 0.56286E-02
  weight for this iteration     100.00

 eigenvalues of (default mixing * dielectric matrix)
  average eigenvalue GAMMA=   1.2280
  2.4518  2.1500  1.1716  0.5475  0.6246  0.8252  0.8252

 Free energy of the ion-electron system (eV)
  ---------------------------------------------------
  alpha Z        PSCENC =      8266.97428417
  Ewald energy   TEWEN  =   -144746.26977670
  -Hartree energ DENC   =    -64913.63108487
  -exchange      EXHF   =         0.00000000
  -V(xc)+E(xc)   XCENC  =      5598.68369447
  PAW double counting   =    170447.38271825  -179464.68643427
  entropy T*S    EENTRO =        -0.28279351
  eigenvalues    EBANDS =    -19558.64702800
  atomic energy  EATOM  =    224013.29143063
  Solvation  Ediel_sol  =         0.00000000
  ---------------------------------------------------
  free energy    TOTEN  =      -357.18498982 eV

  energy without entropy =     -356.90219631  energy(sigma->0) =     -357.09072532


--------------------------------------------------------------------------------------------------------




----------------------------------------- Iteration    1(  13)  ---------------------------------------


    POTLOK:  cpu time    0.4539: real time    0.4532
    SETDIJ:  cpu time    0.0540: real time    0.0541
     EDDAV:  cpu time  246.0696: real time  245.9288
       DOS:  cpu time    0.0060: real time    0.0061
    CHARGE:  cpu time   11.5352: real time   11.5340
    MIXING:  cpu time    0.0130: real time    0.0122
    --------------------------------------------
      LOOP:  cpu time  258.1328: real time  257.9894

 eigenvalue-minimisations  : 27208
 total energy-change (2. order) :-0.3998866E-05  (-0.8862879E-05)
 number of electron    1023.9999788 magnetization      43.4343286
 augmentation part      607.1296901 magnetization      37.2544800

 Broyden mixing:
  rms(total) = 0.13992E-02    rms(broyden)= 0.13984E-02
  rms(prec ) = 0.15970E-02
  weight for this iteration     100.00

 eigenvalues of (default mixing * dielectric matrix)
  average eigenvalue GAMMA=   1.2079
  2.4789  1.9003  1.6222  0.9675  0.5476  0.6237  0.7614  0.7614

 Free energy of the ion-electron system (eV)
  ---------------------------------------------------
  alpha Z        PSCENC =      8266.97428417
  Ewald energy   TEWEN  =   -144746.26977670
  -Hartree energ DENC   =    -64912.65569081
  -exchange      EXHF   =         0.00000000
  -V(xc)+E(xc)   XCENC  =      5598.63983040
  PAW double counting   =    170449.48133003  -179466.65484758
  entropy T*S    EENTRO =        -0.28300453
  eigenvalues    EBANDS =    -19559.70854943
  atomic energy  EATOM  =    224013.29143063
  Solvation  Ediel_sol  =         0.00000000
  ---------------------------------------------------
  free energy    TOTEN  =      -357.18499382 eV

  energy without entropy =     -356.90198929  energy(sigma->0) =     -357.09065897


--------------------------------------------------------------------------------------------------------




----------------------------------------- Iteration    1(  14)  ---------------------------------------


    POTLOK:  cpu time    0.4539: real time    0.4529
    SETDIJ:  cpu time    0.0540: real time    0.0541
     EDDAV:  cpu time  187.8924: real time  187.7858
       DOS:  cpu time    0.0060: real time    0.0060
    CHARGE:  cpu time   11.4953: real time   11.4860
    MIXING:  cpu time    0.0130: real time    0.0127
    --------------------------------------------
      LOOP:  cpu time  199.9156: real time  199.7983

 eigenvalue-minimisations  : 18896
 total energy-change (2. order) : 0.2725545E-05  (-0.3821418E-06)
 number of electron    1023.9999788 magnetization      43.4270714
 augmentation part      607.1300947 magnetization      37.2470416

 Broyden mixing:
  rms(total) = 0.93726E-03    rms(broyden)= 0.93668E-03
  rms(prec ) = 0.12049E-02
  weight for this iteration     100.00

 eigenvalues of (default mixing * dielectric matrix)
  average eigenvalue GAMMA=   1.2822
  2.4952  2.1862  2.1862  1.1591  0.8457  0.8457  0.5474  0.6281  0.6458

 Free energy of the ion-electron system (eV)
  ---------------------------------------------------
  alpha Z        PSCENC =      8266.97428417
  Ewald energy   TEWEN  =   -144746.26977670
  -Hartree energ DENC   =    -64912.73450804
  -exchange      EXHF   =         0.00000000
  -V(xc)+E(xc)   XCENC  =      5598.64023275
  PAW double counting   =    170451.25284898  -179468.36197843
  entropy T*S    EENTRO =        -0.28302413
  eigenvalues    EBANDS =    -19559.69450032
  atomic energy  EATOM  =    224013.29143063
  Solvation  Ediel_sol  =         0.00000000
  ---------------------------------------------------
  free energy    TOTEN  =      -357.18499109 eV

  energy without entropy =     -356.90196696  energy(sigma->0) =     -357.09064971


--------------------------------------------------------------------------------------------------------




----------------------------------------- Iteration    1(  15)  ---------------------------------------


    POTLOK:  cpu time    0.4529: real time    0.4533
    SETDIJ:  cpu time    0.0550: real time    0.0541
     EDDAV:  cpu time  178.9508: real time  178.8867
       DOS:  cpu time    0.0060: real time    0.0060
    CHARGE:  cpu time   11.5182: real time   11.5156
    MIXING:  cpu time    0.0140: real time    0.0134
    --------------------------------------------
      LOOP:  cpu time  190.9970: real time  190.9300

 eigenvalue-minimisations  : 17584
 total energy-change (2. order) : 0.9797717E-05  (-0.2698650E-06)
 number of electron    1023.9999788 magnetization      43.4300268
 augmentation part      607.1262604 magnetization      37.2499281

 Broyden mixing:
  rms(total) = 0.49708E-03    rms(broyden)= 0.49699E-03
  rms(prec ) = 0.49930E-03
  weight for this iteration     100.00

 eigenvalues of (default mixing * dielectric matrix)
  average eigenvalue GAMMA=   1.2855
  2.6140  2.2639  2.1836  1.4028  0.9219  0.9219  0.5474  0.7462  0.6301  0.6228

 Free energy of the ion-electron system (eV)
  ---------------------------------------------------
  alpha Z        PSCENC =      8266.97428417
  Ewald energy   TEWEN  =   -144746.26977670
  -Hartree energ DENC   =    -64913.10245250
  -exchange      EXHF   =         0.00000000
  -V(xc)+E(xc)   XCENC  =      5598.65284610
  PAW double counting   =    170453.95620397  -179470.94212106
  entropy T*S    EENTRO =        -0.28298651
  eigenvalues    EBANDS =    -19559.46240939
  atomic energy  EATOM  =    224013.29143063
  Solvation  Ediel_sol  =         0.00000000
  ---------------------------------------------------
  free energy    TOTEN  =      -357.18498129 eV

  energy without entropy =     -356.90199478  energy(sigma->0) =     -357.09065246


--------------------------------------------------------------------------------------------------------




----------------------------------------- Iteration    1(  16)  ---------------------------------------


    POTLOK:  cpu time    0.4529: real time    0.4534
    SETDIJ:  cpu time    0.0540: real time    0.0541
     EDDAV:  cpu time  150.2562: real time  150.2453
       DOS:  cpu time    0.0060: real time    0.0060
    CHARGE:  cpu time   11.5312: real time   11.5232
    MIXING:  cpu time    0.0150: real time    0.0140
    --------------------------------------------
      LOOP:  cpu time  162.3173: real time  162.2979

 eigenvalue-minimisations  : 13600
 total energy-change (2. order) : 0.2476561E-05  (-0.3602632E-07)
 number of electron    1023.9999788 magnetization      43.4306297
 augmentation part      607.1263312 magnetization      37.2510968

 Broyden mixing:
  rms(total) = 0.80611E-04    rms(broyden)= 0.80452E-04
  rms(prec ) = 0.86509E-04
  weight for this iteration     100.00

 eigenvalues of (default mixing * dielectric matrix)
  average eigenvalue GAMMA=   1.2465
  2.6245  2.3699  1.8450  1.6681  0.9532  0.9532  0.5474  0.7732  0.6248  0.6758
  0.6758

 Free energy of the ion-electron system (eV)
  ---------------------------------------------------
  alpha Z        PSCENC =      8266.97428417
  Ewald energy   TEWEN  =   -144746.26977670
  -Hartree energ DENC   =    -64913.13797817
  -exchange      EXHF   =         0.00000000
  -V(xc)+E(xc)   XCENC  =      5598.65527877
  PAW double counting   =    170454.55102944  -179471.49139602
  entropy T*S    EENTRO =        -0.28298136
  eigenvalues    EBANDS =    -19559.47486958
  atomic energy  EATOM  =    224013.29143063
  Solvation  Ediel_sol  =         0.00000000
  ---------------------------------------------------
  free energy    TOTEN  =      -357.18497882 eV

  energy without entropy =     -356.90199746  energy(sigma->0) =     -357.09065170


--------------------------------------------------------------------------------------------------------




----------------------------------------- Iteration    1(  17)  ---------------------------------------


    POTLOK:  cpu time    0.4529: real time    0.4534
    SETDIJ:  cpu time    0.0550: real time    0.0543
     EDDAV:  cpu time  149.9602: real time  149.8788
       DOS:  cpu time    0.0060: real time    0.0060
    --------------------------------------------
      LOOP:  cpu time  150.4751: real time  150.3932

 eigenvalue-minimisations  : 13560
 total energy-change (2. order) :-0.3783498E-09  (-0.4565644E-08)
 number of electron    1023.9999788 magnetization      43.4306297
 augmentation part      607.1263312 magnetization      37.2510968

 Free energy of the ion-electron system (eV)
  ---------------------------------------------------
  alpha Z        PSCENC =      8266.97428417
  Ewald energy   TEWEN  =   -144746.26977670
  -Hartree energ DENC   =    -64913.13135624
  -exchange      EXHF   =         0.00000000
  -V(xc)+E(xc)   XCENC  =      5598.65516872
  PAW double counting   =    170454.47305847  -179471.41128163
  entropy T*S    EENTRO =        -0.28298170
  eigenvalues    EBANDS =    -19559.48352455
  atomic energy  EATOM  =    224013.29143063
  Solvation  Ediel_sol  =         0.00000000
  ---------------------------------------------------
  free energy    TOTEN  =      -357.18497882 eV

  energy without entropy =     -356.90199712  energy(sigma->0) =     -357.09065158


--------------------------------------------------------------------------------------------------------




 average (electrostatic) potential at core
  the test charge radii are     0.8614
  (the norm of the test charge is              1.0000)
       1 -81.1947       2 -81.1947       3 -81.1947       4 -81.1947       5 -81.1947
       6 -81.1947       7 -81.1947       8 -81.1947       9 -81.1947      10 -81.1947
      11 -81.1947      12 -81.1947      13 -81.1947      14 -81.1947      15 -81.1947
      16 -81.1947      17 -81.1947      18 -81.1947      19 -81.1947      20 -81.1947
      21 -81.1947      22 -81.1947      23 -81.1947      24 -81.1947      25 -81.1947
      26 -81.1947      27 -81.1947      28 -81.1947      29 -81.1947      30 -81.1947
      31 -81.1947      32 -81.1947      33 -81.1947      34 -81.1947      35 -81.1947
      36 -81.1947      37 -81.1947      38 -81.1947      39 -81.1947      40 -81.1947
      41 -81.1947      42 -81.1947      43 -81.1947      44 -81.1947      45 -81.1947
      46 -81.1947      47 -81.1947      48 -81.1947      49 -81.1947      50 -81.1947
      51 -81.1947      52 -81.1947      53 -81.1947      54 -81.1947      55 -81.1947
      56 -81.1947      57 -81.1947      58 -81.1947      59 -81.1947      60 -81.1947
      61 -81.1947      62 -81.1947      63 -81.1947      64 -81.1947
 
 
 
 E-fermi :   5.8173     XC(G=0): -12.6618     alpha+bet :-12.4150


 spin component 1

 k-point     1 :       0.0000    0.0000    0.0000
  band No.  band energies     occupation 
      1     -57.9457      1.00000
      2     -57.9457      1.00000
      3     -57.9457      1.00000
      4     -57.9450      1.00000
      5     -57.9450      1.00000
      6     -57.9450      1.00000
      7     -57.9450      1.00000
      8     -57.9251      1.00000
      9     -57.9251      1.00000
     10     -57.9251      1.00000
     11     -57.9251      1.00000
     12     -57.9251      1.00000
     13     -57.9251      1.00000
     14     -57.9250      1.00000
     15     -57.9250      1.00000
     16     -57.9250      1.00000
     17     -57.9250      1.00000
     18     -57.9250      1.00000
     19     -57.9250      1.00000
     20     -57.9250      1.00000
     21     -57.9250      1.00000
     22     -57.9250      1.00000
     23     -57.9250      1.00000
     24     -57.9250      1.00000
     25     -57.9250      1.00000
     26     -57.9250      1.00000
     27     -57.9250      1.00000
     28     -57.9250      1.00000
     29     -57.9250      1.00000
     30     -57.9250      1.00000
     31     -57.9250      1.00000
     32     -57.9134      1.00000
     33     -57.9134      1.00000
     34     -57.9134      1.00000
     35     -57.9134      1.00000
     36     -57.9134      1.00000
     37     -57.9134      1.00000
     38     -57.9134      1.00000
     39     -57.9134      1.00000
     40     -57.9134      1.00000
     41     -57.9134      1.00000
     42     -57.9134      1.00000
     43     -57.9134      1.00000
     44     -57.9082      1.00000
     45     -57.9082      1.00000
     46     -57.9082      1.00000
     47     -57.9082      1.00000
     48     -57.9082      1.00000
     49     -57.9082      1.00000
     50     -57.9082      1.00000
     51     -57.9082      1.00000
     52     -57.9082      1.00000
     53     -57.9082      1.00000
     54     -57.9082      1.00000
     55     -57.9082      1.00000
     56     -57.8924      1.00000
     57     -57.8924      1.00000
     58     -57.8924      1.00000
     59     -57.8924      1.00000
     60     -57.8924      1.00000
     61     -57.8924      1.00000
     62     -57.8924      1.00000
     63     -57.8924      1.00000
     64     -57.8852      1.00000
     65     -57.8852      1.00000
     66     -57.8852      1.00000
     67     -57.8852      1.00000
     68     -57.8852      1.00000
     69     -57.8852      1.00000
     70     -57.8824      1.00000
     71     -57.8824      1.00000
     72     -57.8824      1.00000
     73     -57.8823      1.00000
     74     -57.8823      1.00000
     75     -57.8823      1.00000
     76     -57.8807      1.00000
     77     -57.8807      1.00000
     78     -57.8807      1.00000
     79     -57.8807      1.00000
     80     -57.8807      1.00000
     81     -57.8807      1.00000
     82     -57.8807      1.00000
     83     -57.8807      1.00000
     84     -57.8807      1.00000
     85     -57.8807      1.00000
     86     -57.8807      1.00000
     87     -57.8807      1.00000
     88     -57.8768      1.00000
     89     -57.8768      1.00000
     90     -57.8768      1.00000
     91     -57.8768      1.00000
     92     -57.8768      1.00000
     93     -57.8768      1.00000
     94     -57.8768      1.00000
     95     -57.8768      1.00000
     96     -57.8768      1.00000
     97     -57.8768      1.00000
     98     -57.8768      1.00000
     99     -57.8768      1.00000
    100     -57.8768      1.00000
    101     -57.8768      1.00000
    102     -57.8768      1.00000
    103     -57.8768      1.00000
    104     -57.8768      1.00000
    105     -57.8768      1.00000
    106     -57.8768      1.00000
    107     -57.8768      1.00000
    108     -57.8768      1.00000
    109     -57.8768      1.00000
    110     -57.8768      1.00000
    111     -57.8768      1.00000
    112     -57.8728      1.00000
    113     -57.8728      1.00000
    114     -57.8728      1.00000
    115     -57.8728      1.00000
    116     -57.8728      1.00000
    117     -57.8728      1.00000
    118     -57.8634      1.00000
    119     -57.8634      1.00000
    120     -57.8634      1.00000
    121     -57.8634      1.00000
    122     -57.8634      1.00000
    123     -57.8634      1.00000
    124     -57.8634      1.00000
    125     -57.8634      1.00000
    126     -57.8634      1.00000
    127     -57.8634      1.00000
    128     -57.8634      1.00000
    129     -57.8634      1.00000
    130     -57.8634      1.00000
    131     -57.8634      1.00000
    132     -57.8634      1.00000
    133     -57.8634      1.00000
    134     -57.8634      1.00000
    135     -57.8634      1.00000
    136     -57.8634      1.00000
    137     -57.8634      1.00000
    138     -57.8634      1.00000
    139     -57.8634      1.00000
    140     -57.8634      1.00000
    141     -57.8634      1.00000
    142     -57.8470      1.00000
    143     -57.8470      1.00000
    144     -57.8470      1.00000
    145     -57.8470      1.00000
    146     -57.8470      1.00000
    147     -57.8470      1.00000
    148     -57.8470      1.00000
    149     -57.8470      1.00000
    150     -57.8470      1.00000
    151     -57.8470      1.00000
    152     -57.8470      1.00000
    153     -57.8470      1.00000
    154     -57.8467      1.00000
    155     -57.8467      1.00000
    156     -57.8467      1.00000
    157     -57.8467      1.00000
    158     -57.8467      1.00000
    159     -57.8467      1.00000
    160     -57.8466      1.00000
    161     -57.8466      1.00000
    162     -57.8466      1.00000
    163     -57.8466      1.00000
    164     -57.8466      1.00000
    165     -57.8466      1.00000
    166     -57.8456      1.00000
    167     -57.8456      1.00000
    168     -57.8456      1.00000
    169     -57.8456      1.00000
    170     -57.8456      1.00000
    171     -57.8456      1.00000
    172     -57.8456      1.00000
    173     -57.8456      1.00000
    174     -57.8360      1.00000
    175     -57.8360      1.00000
    176     -57.8360      1.00000
    177     -57.8360      1.00000
    178     -57.8360      1.00000
    179     -57.8360      1.00000
    180     -57.8360      1.00000
    181     -57.8360      1.00000
    182     -57.8360      1.00000
    183     -57.8360      1.00000
    184     -57.8360      1.00000
    185     -57.8360      1.00000
    186     -57.8360      1.00000
    187     -57.8360      1.00000
    188     -57.8360      1.00000
    189     -57.8360      1.00000
    190     -57.8138      1.00000
    191     -57.8138      1.00000
    192     -57.8138      1.00000
    193      -2.0580      1.00000
    194      -0.0740      1.00000
    195      -0.0740      1.00000
    196      -0.0740      1.00000
    197      -0.0740      1.00000
    198      -0.0740      1.00000
    199      -0.0740      1.00000
    200      -0.0740      1.00000
    201      -0.0740      1.00000
    202       0.5296      1.00000
    203       0.5296      1.00000
    204       0.5296      1.00000
    205       0.5296      1.00000
    206       0.5296      1.00000
    207       0.5296      1.00000
    208       1.8163      1.00000
    209       1.8163      1.00000
    210       1.8163      1.00000
    211       1.8163      1.00000
    212       2.0669      1.00000
    213       2.0669      1.00000
    214       2.0669      1.00000
    215       2.2505      1.00000
    216       2.2505      1.00000
    217       2.2505      1.00000
    218       2.2505      1.00000
    219       2.2505      1.00000
    220       2.2505      1.00000
    221       2.2505      1.00000
    222       2.2505      1.00000
    223       2.2505      1.00000
    224       2.2505      1.00000
    225       2.2505      1.00000
    226       2.2505      1.00000
    227       2.4040      1.00000
    228       2.4040      1.00000
    229       2.4040      1.00000
    230       2.4565      1.00000
    231       2.4565      1.00000
    232       2.4565      1.00000
    233       2.4565      1.00000
    234       2.4565      1.00000
    235       2.4565      1.00000
    236       2.4565      1.00000
    237       2.4565      1.00000
    238       2.4565      1.00000
    239       2.4565      1.00000
    240       2.4565      1.00000
    241       2.4565      1.00000
    242       2.4565      1.00000
    243       2.4565      1.00000
    244       2.4565      1.00000
    245       2.4565      1.00000
    246       2.4565      1.00000
    247       2.4565      1.00000
    248       2.4565      1.00000
    249       2.4565      1.00000
    250       2.4565      1.00000
    251       2.4565      1.00000
    252       2.4565      1.00000
    253       2.4565      1.00000
    254       2.7781      1.00000
    255       2.7781      1.00000
    256       2.7781      1.00000
    257       2.7781      1.00000
    258       2.7781      1.00000
    259       2.7781      1.00000
    260       3.0042      1.00000
    261       3.0042      1.00000
    262       3.0042      1.00000
    263       3.0042      1.00000
    264       3.0042      1.00000
    265       3.0042      1.00000
    266       3.0042      1.00000
    267       3.0042      1.00000
    268       3.0042      1.00000
    269       3.0042      1.00000
[...]
      1.868250  3.736500  1.868250     0.026575   -0.007081    0.121937  
      3.736500  5.604750  1.868250     0.026575   -0.007081    0.121937  
      5.604750  7.473000  1.868250     0.026575   -0.007081    0.121937  
      1.868250  1.868250  3.736500     0.026575   -0.007081    0.121937  
      3.736500  3.736500  3.736500     0.026575   -0.007081    0.121937  
      5.604750  5.604750  3.736500     0.026575   -0.007081    0.121937  
      7.473000  7.473000  3.736500     0.026575   -0.007081    0.121937  
      3.736500  1.868250  5.604750     0.026575   -0.007081    0.121937  
      5.604750  3.736500  5.604750     0.026575   -0.007081    0.121937  
      7.473000  5.604750  5.604750     0.026575   -0.007081    0.121937  
      9.341250  7.473000  5.604750     0.026575   -0.007081    0.121937  
      5.604750  1.868250  7.473000     0.026575   -0.007081    0.121937  
      7.473000  3.736500  7.473000     0.026575   -0.007081    0.121937  
      9.341250  5.604750  7.473000     0.026575   -0.007081    0.121937  
     11.209500  7.473000  7.473000     0.026575   -0.007081    0.121937  
      0.000000  3.736500  3.736500     0.026575   -0.007081    0.121937  
      1.868250  5.604750  3.736500     0.026575   -0.007081    0.121937  
      3.736500  7.473000  3.736500     0.026575   -0.007081    0.121937  
      5.604750  9.341250  3.736500     0.026575   -0.007081    0.121937  
      1.868250  3.736500  5.604750     0.026575   -0.007081    0.121937  
      3.736500  5.604750  5.604750     0.026575   -0.007081    0.121937  
      5.604750  7.473000  5.604750     0.026575   -0.007081    0.121937  
      7.473000  9.341250  5.604750     0.026575   -0.007081    0.121937  
      3.736500  3.736500  7.473000     0.026575   -0.007081    0.121937  
      5.604750  5.604750  7.473000     0.026575   -0.007081    0.121937  
      7.473000  7.473000  7.473000     0.026575   -0.007081    0.121937  
      9.341250  9.341250  7.473000     0.026575   -0.007081    0.121937  
      5.604750  3.736500  9.341250     0.026575   -0.007081    0.121937  
      7.473000  5.604750  9.341250     0.026575   -0.007081    0.121937  
      9.341250  7.473000  9.341250     0.026575   -0.007081    0.121937  
     11.209500  9.341250  9.341250     0.026575   -0.007081    0.121937  
      0.000000  5.604750  5.604750     0.026575   -0.007081    0.121937  
      1.868250  7.473000  5.604750     0.026575   -0.007081    0.121937  
      3.736500  9.341250  5.604750     0.026575   -0.007081    0.121937  
      5.604750 11.209500  5.604750     0.026575   -0.007081    0.121937  
      1.868250  5.604750  7.473000     0.026575   -0.007081    0.121937  
      3.736500  7.473000  7.473000     0.026575   -0.007081    0.121937  
      5.604750  9.341250  7.473000     0.026575   -0.007081    0.121937  
      7.473000 11.209500  7.473000     0.026575   -0.007081    0.121937  
      3.736500  5.604750  9.341250     0.026575   -0.007081    0.121937  
      5.604750  7.473000  9.341250     0.026575   -0.007081    0.121937  
      7.473000  9.341250  9.341250     0.026575   -0.007081    0.121937  
      9.341250 11.209500  9.341250     0.026575   -0.007081    0.121937  
      5.604750  5.604750 11.209500     0.026575   -0.007081    0.121937  
      7.473000  7.473000 11.209500     0.026575   -0.007081    0.121937  
      9.341250  9.341250 11.209500     0.026575   -0.007081    0.121937  
     11.209500 11.209500 11.209500     0.026575   -0.007081    0.121937  
 
 192 f/i=    0.000001 THz     0.000006 2PiTHz    0.000034 cm-1     0.000004 meV
             X         Y         Z           dx          dy          dz
      0.000000  0.000000  0.000000    -0.032704   -0.120646    0.000121  
      1.868250  1.868250  0.000000    -0.032704   -0.120646    0.000121  
      3.736500  3.736500  0.000000    -0.032704   -0.120646    0.000121  
      5.604750  5.604750  0.000000    -0.032704   -0.120646    0.000121  
      1.868250  0.000000  1.868250    -0.032704   -0.120646    0.000121  
      3.736500  1.868250  1.868250    -0.032704   -0.120646    0.000121  
      5.604750  3.736500  1.868250    -0.032704   -0.120646    0.000121  
      7.473000  5.604750  1.868250    -0.032704   -0.120646    0.000121  
      3.736500  0.000000  3.736500    -0.032704   -0.120646    0.000121  
      5.604750  1.868250  3.736500    -0.032704   -0.120646    0.000121  
      7.473000  3.736500  3.736500    -0.032704   -0.120646    0.000121  
      9.341250  5.604750  3.736500    -0.032704   -0.120646    0.000121  
      5.604750  0.000000  5.604750    -0.032704   -0.120646    0.000121  
      7.473000  1.868250  5.604750    -0.032704   -0.120646    0.000121  
      9.341250  3.736500  5.604750    -0.032704   -0.120646    0.000121  
     11.209500  5.604750  5.604750    -0.032704   -0.120646    0.000121  
      0.000000  1.868250  1.868250    -0.032704   -0.120646    0.000121  
      1.868250  3.736500  1.868250    -0.032704   -0.120646    0.000121  
      3.736500  5.604750  1.868250    -0.032704   -0.120646    0.000121  
      5.604750  7.473000  1.868250    -0.032704   -0.120646    0.000121  
      1.868250  1.868250  3.736500    -0.032704   -0.120646    0.000121  
      3.736500  3.736500  3.736500    -0.032704   -0.120646    0.000121  
      5.604750  5.604750  3.736500    -0.032704   -0.120646    0.000121  
      7.473000  7.473000  3.736500    -0.032704   -0.120646    0.000121  
      3.736500  1.868250  5.604750    -0.032704   -0.120646    0.000121  
      5.604750  3.736500  5.604750    -0.032704   -0.120646    0.000121  
      7.473000  5.604750  5.604750    -0.032704   -0.120646    0.000121  
      9.341250  7.473000  5.604750    -0.032704   -0.120646    0.000121  
      5.604750  1.868250  7.473000    -0.032704   -0.120646    0.000121  
      7.473000  3.736500  7.473000    -0.032704   -0.120646    0.000121  
      9.341250  5.604750  7.473000    -0.032704   -0.120646    0.000121  
     11.209500  7.473000  7.473000    -0.032704   -0.120646    0.000121  
      0.000000  3.736500  3.736500    -0.032704   -0.120646    0.000121  
      1.868250  5.604750  3.736500    -0.032704   -0.120646    0.000121  
      3.736500  7.473000  3.736500    -0.032704   -0.120646    0.000121  
      5.604750  9.341250  3.736500    -0.032704   -0.120646    0.000121  
      1.868250  3.736500  5.604750    -0.032704   -0.120646    0.000121  
      3.736500  5.604750  5.604750    -0.032704   -0.120646    0.000121  
      5.604750  7.473000  5.604750    -0.032704   -0.120646    0.000121  
      7.473000  9.341250  5.604750    -0.032704   -0.120646    0.000121  
      3.736500  3.736500  7.473000    -0.032704   -0.120646    0.000121  
      5.604750  5.604750  7.473000    -0.032704   -0.120646    0.000121  
      7.473000  7.473000  7.473000    -0.032704   -0.120646    0.000121  
      9.341250  9.341250  7.473000    -0.032704   -0.120646    0.000121  
      5.604750  3.736500  9.341250    -0.032704   -0.120646    0.000121  
      7.473000  5.604750  9.341250    -0.032704   -0.120646    0.000121  
      9.341250  7.473000  9.341250    -0.032704   -0.120646    0.000121  
     11.209500  9.341250  9.341250    -0.032704   -0.120646    0.000121  
      0.000000  5.604750  5.604750    -0.032704   -0.120646    0.000121  
      1.868250  7.473000  5.604750    -0.032704   -0.120646    0.000121  
      3.736500  9.341250  5.604750    -0.032704   -0.120646    0.000121  
      5.604750 11.209500  5.604750    -0.032704   -0.120646    0.000121  
      1.868250  5.604750  7.473000    -0.032704   -0.120646    0.000121  
      3.736500  7.473000  7.473000    -0.032704   -0.120646    0.000121  
      5.604750  9.341250  7.473000    -0.032704   -0.120646    0.000121  
      7.473000 11.209500  7.473000    -0.032704   -0.120646    0.000121  
      3.736500  5.604750  9.341250    -0.032704   -0.120646    0.000121  
      5.604750  7.473000  9.341250    -0.032704   -0.120646    0.000121  
      7.473000  9.341250  9.341250    -0.032704   -0.120646    0.000121  
      9.341250 11.209500  9.341250    -0.032704   -0.120646    0.000121  
      5.604750  5.604750 11.209500    -0.032704   -0.120646    0.000121  
      7.473000  7.473000 11.209500    -0.032704   -0.120646    0.000121  
      9.341250  9.341250 11.209500    -0.032704   -0.120646    0.000121  
     11.209500 11.209500 11.209500    -0.032704   -0.120646    0.000121  
 

 ELASTIC MODULI CONTR FROM IONIC RELAXATION (kBar)
 Direction    XX          YY          ZZ          XY          YZ          ZX
 --------------------------------------------------------------------------------
 XX          -0.0000      0.0000      0.0000      0.0000     -0.0000      0.0000
 YY          -0.0000      0.0000      0.0000      0.0000     -0.0000      0.0000
 ZZ           0.0000      0.0000      0.0000      0.0000     -0.0000      0.0000
 XY          -0.0000      0.0000      0.0000     -0.0000      0.0000      0.0000
 YZ           0.0000      0.0000      0.0000      0.0000     -0.0000      0.0000
 ZX          -0.0000     -0.0000      0.0000      0.0000      0.0000     -0.0000
 --------------------------------------------------------------------------------



--------------------------------------------------------------------------------------------------------


  LATTYP: Found a face centered cubic cell.
 ALAT       =    14.9460000000
  
  Lattice vectors:
  
 A1 = (   0.0000000000,   7.4730000000,   7.4730000000)
 A2 = (   7.4730000000,   0.0000000000,   7.4730000000)
 A3 = (   7.4730000000,   7.4730000000,   0.0000000000)


Analysis of symmetry for initial positions (statically):
=====================================================================
 Subroutine PRICEL returns following result:
 
  LATTYP: Found a face centered cubic cell.
 ALAT       =     3.7365000000
  
  Lattice vectors:
  
 A1 = (   0.0000000000,   1.8682500000,   1.8682500000)
 A2 = (   1.8682500000,   0.0000000000,   1.8682500000)
 A3 = (   1.8682500000,   1.8682500000,   0.0000000000)
 
  64 primitive cells build up your supercell.
 

 Routine SETGRP: Setting up the symmetry group for a 
 face centered cubic supercell.


 Subroutine GETGRP returns: Found 48 space group operations
 (whereof 48 operations were pure point group operations)
 out of a pool of 48 trial point group operations.


The static configuration has the point symmetry O_h .


Analysis of symmetry for dynamics (positions and initial velocities):
=====================================================================
 Subroutine PRICEL returns following result:
 
  LATTYP: Found a face centered cubic cell.
 ALAT       =     3.7365000000
  
  Lattice vectors:
  
 A1 = (   0.0000000000,   1.8682500000,   1.8682500000)
 A2 = (   1.8682500000,   0.0000000000,   1.8682500000)
 A3 = (   1.8682500000,   1.8682500000,   0.0000000000)
 
  64 primitive cells build up your supercell.
 

 Routine SETGRP: Setting up the symmetry group for a 
 face centered cubic supercell.


 Subroutine GETGRP returns: Found 48 space group operations
 (whereof 48 operations were pure point group operations)
 out of a pool of 48 trial point group operations.


The dynamic configuration has the point symmetry O_h .


Analysis of structural, dynamic, and magnetic symmetry:
=====================================================================
 Subroutine PRICEL returns following result:
 
  LATTYP: Found a face centered cubic cell.
 ALAT       =     3.7365000000
  
  Lattice vectors:
  
 A1 = (   0.0000000000,   1.8682500000,   1.8682500000)
 A2 = (   1.8682500000,   0.0000000000,   1.8682500000)
 A3 = (   1.8682500000,   1.8682500000,   0.0000000000)
 
  64 primitive cells build up your supercell.
 

 Routine SETGRP: Setting up the symmetry group for a 
 face centered cubic supercell.


 Subroutine GETGRP returns: Found 48 space group operations
 (whereof 48 operations were pure point group operations)
 out of a pool of 48 trial point group operations.


The magnetic configuration has the point symmetry O_h .


 Subroutine INISYM returns: Found 48 space group operations
 (whereof 48 operations are pure point group operations),
 and found    64 'primitive' translations

 
 KPOINTS: Zr 15x15x15                             

Automatic generation of k-mesh.
Space group operators:
 irot       det(A)        alpha          n_x          n_y          n_z        tau_x        tau_y        tau_z
    1     1.000000     0.000000     1.000000     0.000000     0.000000     0.000000     0.000000     0.000000
    2    -1.000000     0.000000     1.000000     0.000000     0.000000     0.000000     0.000000     0.000000
    3     1.000000   120.000000    -0.577350    -0.577350    -0.577350     0.000000     0.000000     0.000000
    4    -1.000000   120.000000    -0.577350    -0.577350    -0.577350     0.000000     0.000000     0.000000
    5     1.000000   120.000000     0.577350     0.577350     0.577350     0.000000     0.000000     0.000000
    6    -1.000000   120.000000     0.577350     0.577350     0.577350     0.000000     0.000000     0.000000
    7     1.000000    90.000000     0.000000     0.000000    -1.000000     0.000000     0.000000     0.000000
    8    -1.000000    90.000000     0.000000     0.000000    -1.000000     0.000000     0.000000     0.000000
    9     1.000000   180.000000     0.000000     0.707107     0.707107     0.000000     0.000000     0.000000
   10    -1.000000   180.000000     0.000000     0.707107     0.707107     0.000000     0.000000     0.000000
   11     1.000000    90.000000     0.000000     1.000000     0.000000     0.000000     0.000000     0.000000
   12    -1.000000    90.000000     0.000000     1.000000     0.000000     0.000000     0.000000     0.000000
   13     1.000000   180.000000     0.000000     0.000000     1.000000     0.000000     0.000000     0.000000
   14    -1.000000   180.000000     0.000000     0.000000     1.000000     0.000000     0.000000     0.000000
   15     1.000000   120.000000    -0.577350     0.577350     0.577350     0.000000     0.000000     0.000000
   16    -1.000000   120.000000    -0.577350     0.577350     0.577350     0.000000     0.000000     0.000000
   17     1.000000   120.000000    -0.577350     0.577350    -0.577350     0.000000     0.000000     0.000000
   18    -1.000000   120.000000    -0.577350     0.577350    -0.577350     0.000000     0.000000     0.000000
   19     1.000000    90.000000     0.000000     0.000000     1.000000     0.000000     0.000000     0.000000
   20    -1.000000    90.000000     0.000000     0.000000     1.000000     0.000000     0.000000     0.000000
   21     1.000000    90.000000    -1.000000     0.000000     0.000000     0.000000     0.000000     0.000000
   22    -1.000000    90.000000    -1.000000     0.000000     0.000000     0.000000     0.000000     0.000000
   23     1.000000   180.000000     0.707107     0.000000     0.707107     0.000000     0.000000     0.000000
   24    -1.000000   180.000000     0.707107     0.000000     0.707107     0.000000     0.000000     0.000000
   25     1.000000   120.000000     0.577350    -0.577350     0.577350     0.000000     0.000000     0.000000
   26    -1.000000   120.000000     0.577350    -0.577350     0.577350     0.000000     0.000000     0.000000
   27     1.000000   120.000000    -0.577350    -0.577350     0.577350     0.000000     0.000000     0.000000
   28    -1.000000   120.000000    -0.577350    -0.577350     0.577350     0.000000     0.000000     0.000000
   29     1.000000   180.000000     1.000000     0.000000     0.000000     0.000000     0.000000     0.000000
   30    -1.000000   180.000000     1.000000     0.000000     0.000000     0.000000     0.000000     0.000000
   31     1.000000    90.000000     0.000000    -1.000000     0.000000     0.000000     0.000000     0.000000
   32    -1.000000    90.000000     0.000000    -1.000000     0.000000     0.000000     0.000000     0.000000
   33     1.000000   180.000000     0.707107     0.707107     0.000000     0.000000     0.000000     0.000000
   34    -1.000000   180.000000     0.707107     0.707107     0.000000     0.000000     0.000000     0.000000
   35     1.000000    90.000000     1.000000     0.000000     0.000000     0.000000     0.000000     0.000000
   36    -1.000000    90.000000     1.000000     0.000000     0.000000     0.000000     0.000000     0.000000
   37     1.000000   120.000000     0.577350    -0.577350    -0.577350     0.000000     0.000000     0.000000
   38    -1.000000   120.000000     0.577350    -0.577350    -0.577350     0.000000     0.000000     0.000000
   39     1.000000   180.000000     0.000000     1.000000     0.000000     0.000000     0.000000     0.000000
   40    -1.000000   180.000000     0.000000     1.000000     0.000000     0.000000     0.000000     0.000000
   41     1.000000   120.000000     0.577350     0.577350    -0.577350     0.000000     0.000000     0.000000
   42    -1.000000   120.000000     0.577350     0.577350    -0.577350     0.000000     0.000000     0.000000
   43     1.000000   180.000000     0.000000    -0.707107     0.707107     0.000000     0.000000     0.000000
   44    -1.000000   180.000000     0.000000    -0.707107     0.707107     0.000000     0.000000     0.000000
   45     1.000000   180.000000     0.707107    -0.707107     0.000000     0.000000     0.000000     0.000000
   46    -1.000000   180.000000     0.707107    -0.707107     0.000000     0.000000     0.000000     0.000000
   47     1.000000   180.000000     0.707107     0.000000    -0.707107     0.000000     0.000000     0.000000
   48    -1.000000   180.000000     0.707107     0.000000    -0.707107     0.000000     0.000000     0.000000
 
 Subroutine IBZKPT returns following result:
 ===========================================
 
 Found     10 irreducible k-points:
 
 Following reciprocal coordinates:
            Coordinates               Weight
  0.000000  0.000000  0.000000      1.000000
  0.200000  0.000000  0.000000      8.000000
  0.400000  0.000000  0.000000      8.000000
  0.200000  0.200000  0.000000      6.000000
  0.400000  0.200000  0.000000     24.000000
 -0.400000  0.200000  0.000000     24.000000
 -0.200000  0.200000  0.000000     12.000000
  0.400000  0.400000  0.000000      6.000000
 -0.400000  0.400000  0.000000     12.000000
 -0.400000  0.400000  0.200000     24.000000
 
 Following cartesian coordinates:
            Coordinates               Weight
  0.000000  0.000000  0.000000      1.000000
 -0.013382  0.013382  0.013382      8.000000
 -0.026763  0.026763  0.026763      8.000000
  0.000000  0.000000  0.026763      6.000000
 -0.013382  0.013382  0.040145     24.000000
  0.040145 -0.040145 -0.013382     24.000000
  0.026763 -0.026763  0.000000     12.000000
  0.000000  0.000000  0.053526      6.000000
  0.053526 -0.053526  0.000000     12.000000
  0.066908 -0.040145 -0.013382     24.000000
 
 writing wavefunctions
     LOOP+:  cpu time 8192.5685: real time 8222.4384
    4ORBIT:  cpu time    0.0000: real time    0.0000

 total amount of memory used by VASP on root node   532340. kBytes
========================================================================

   base      :      30000. kBytes
   nonlr-proj:      56154. kBytes
   fftplans  :      13314. kBytes
   grid      :      53280. kBytes
   one-center:       1990. kBytes
   wavefun   :     377602. kBytes
 
  
  
 General timing and accounting informations for this job:
 ========================================================
  
                  Total CPU time used (sec):    19868.152
                            User time (sec):    19777.911
                          System time (sec):       90.241
                         Elapsed time (sec):    19925.948
  
                   Maximum memory used (kb):     1579496.
                   Average memory used (kb):           0.
  
                          Minor page faults:        70963
                          Major page faults:            0
                 Voluntary context switches:         1891
