       N       E                     dE             d eps       ncg     rms          rms(c)
DAV:   1     0.114973298062E+03    0.11497E+03   -0.97385E+03 17392   0.120E+03
DAV:   2    -0.425419494967E+01   -0.11923E+03   -0.11112E+03 17696   0.337E+02
DAV:   3    -0.653720693145E+01   -0.22830E+01   -0.22748E+01 20216   0.538E+01
DAV:   4    -0.655548626326E+01   -0.18279E-01   -0.18280E-01 18760   0.460E+00
DAV:   5    -0.655583426688E+01   -0.34800E-03   -0.34807E-03 20688   0.627E-01    0.848E+00
DAV:   6    -0.630275957713E+01    0.25307E+00   -0.45863E+00 18208   0.487E+01    0.792E+00
DAV:   7    -0.561689062719E+01    0.68587E+00   -0.11835E+00 17704   0.242E+01    0.812E-01
DAV:   8    -0.560944944248E+01    0.74412E-02   -0.14005E-02 21432   0.100E+00    0.311E-01
DAV:   9    -0.560796670158E+01    0.14827E-02   -0.78854E-04 24104   0.393E-01    0.679E-02
DAV:  10    -0.560800586689E+01   -0.39165E-04   -0.54380E-05 18592   0.785E-02    0.345E-02
DAV:  11    -0.560800664986E+01   -0.78297E-06   -0.69116E-06 20296   0.449E-02
   1 F= -.56080066E+01 E0= -.56080066E+01  d E =0.000000E+00  mag=     0.6802
