<?xml version="1.0" encoding="ISO-8859-1"?>
<modeling>
 <generator>
  <i name="program" type="string">vasp </i>
  <i name="version" type="string">5.4.1  </i>
  <i name="subversion" type="string">05Feb16 (build Oct 12 2016 17:31:35) complex                          parallel </i>
  <i name="platform" type="string">IFC91_ompi </i>
  <i name="date" type="string">2020 09 08 </i>
  <i name="time" type="string">13:32:01 </i>
 </generator>
 <incar>
  <i type="string" name="SYSTEM"> phonon of Zr bcc - omiga</i>
  <i type="string" name="PREC">a</i>
  <i type="int" name="ISPIN">     2</i>
  <i type="int" name="IBRION">     6</i>
  <i name="EDIFF">      0.00000100</i>
  <i type="int" name="NSW">     1</i>
  <v name="MAGMOM">      1.00000000      1.00000000      1.00000000      1.00000000      1.00000000      1.00000000      1.00000000      1.00000000      1.00000000      1.00000000      1.00000000      1.00000000      1.00000000      1.00000000      1.00000000      1.00000000      1.00000000      1.00000000      1.00000000      1.00000000
      1.00000000      1.00000000      1.00000000      1.00000000      1.00000000      1.00000000      1.00000000      1.00000000      1.00000000      1.00000000      1.00000000      1.00000000      1.00000000      1.00000000      1.00000000      1.00000000      1.00000000      1.00000000      1.00000000      1.00000000
      1.00000000      1.00000000      1.00000000      1.00000000      1.00000000      1.00000000      1.00000000      1.00000000      1.00000000      1.00000000      1.00000000      1.00000000      1.00000000      1.00000000      1.00000000      1.00000000      1.00000000      1.00000000      1.00000000      1.00000000
      1.00000000      1.00000000      1.00000000      1.00000000</v>
  <i type="string" name="LREAL">Auto</i>
  <i type="int" name="ISMEAR">     1</i>
  <i type="int" name="NWRITE">     0</i>
  <v type="int" name="KPOINT_BSE">    -1     0     0     0</v>
 </incar>
 <kpoints>
  <generation param="Gamma">
   <v type="int" name="divisions">       5        5        5 </v>
   <v name="usershift">      0.00000000       0.00000000       0.00000000 </v>
   <v name="genvec1">      0.20000000       0.00000000       0.00000000 </v>
   <v name="genvec2">      0.00000000       0.20000000       0.00000000 </v>
   <v name="genvec3">      0.00000000       0.00000000       0.20000000 </v>
   <v name="shift">      0.00000000       0.00000000       0.00000000 </v>
  </generation>
  <varray name="kpointlist" >
   <v>       0.00000000       0.00000000       0.00000000 </v>
   <v>       0.20000000       0.00000000       0.00000000 </v>
   <v>       0.40000000       0.00000000       0.00000000 </v>
   <v>       0.20000000       0.20000000       0.00000000 </v>
   <v>       0.40000000       0.20000000       0.00000000 </v>
   <v>      -0.40000000       0.20000000       0.00000000 </v>
   <v>      -0.20000000       0.20000000       0.00000000 </v>
   <v>       0.40000000       0.40000000       0.00000000 </v>
   <v>      -0.40000000       0.40000000       0.00000000 </v>
   <v>      -0.40000000       0.40000000       0.20000000 </v>
  </varray>
  <varray name="weights" >
   <v>       0.00800000 </v>
   <v>       0.06400000 </v>
   <v>       0.06400000 </v>
   <v>       0.04800000 </v>
   <v>       0.19200000 </v>
   <v>       0.19200000 </v>
   <v>       0.09600000 </v>
   <v>       0.04800000 </v>
   <v>       0.09600000 </v>
   <v>       0.19200000 </v>
  </varray>
 </kpoints>
 <parameters>
  <separator name="general" >
   <i type="string" name="SYSTEM">phonon of Zr bcc - omiga</i>
   <i type="logical" name="LCOMPAT"> F  </i>
  </separator>
  <separator name="electronic" >
   <i type="string" name="PREC">a</i>
   <i name="ENMAX">    367.94500000</i>
   <i name="ENAUG">    703.44300000</i>
   <i name="EDIFF">      0.00000100</i>
   <i type="int" name="IALGO">    38</i>
   <i type="int" name="IWAVPR">    11</i>
   <i type="int" name="NBANDS">   648</i>
   <i name="NELECT">   1024.00000000</i>
   <i type="int" name="TURBO">     0</i>
   <i type="int" name="IRESTART">     0</i>
   <i type="int" name="NREBOOT">     0</i>
   <i type="int" name="NMIN">     0</i>
   <i name="EREF">      0.00000000</i>
   <separator name="electronic smearing" >
    <i type="int" name="ISMEAR">     1</i>
    <i name="SIGMA">      0.20000000</i>
    <i name="KSPACING">      0.50000000</i>
    <i type="logical" name="KGAMMA"> T  </i>
   </separator>
   <separator name="electronic projectors" >
    <i type="logical" name="LREAL"> T  </i>
    <v name="ROPT">     -0.00025000</v>
    <i type="int" name="LMAXPAW">  -100</i>
    <i type="int" name="LMAXMIX">     2</i>
    <i type="logical" name="NLSPLINE"> F  </i>
   </separator>
   <separator name="electronic startup" >
    <i type="int" name="ISTART">     0</i>
    <i type="int" name="ICHARG">     2</i>
    <i type="int" name="INIWAV">     1</i>
   </separator>
   <separator name="electronic spin" >
    <i type="int" name="ISPIN">     2</i>
    <i type="logical" name="LNONCOLLINEAR"> F  </i>
    <v name="MAGMOM">      1.00000000      1.00000000      1.00000000      1.00000000      1.00000000      1.00000000      1.00000000      1.00000000      1.00000000      1.00000000      1.00000000      1.00000000      1.00000000      1.00000000      1.00000000      1.00000000      1.00000000      1.00000000      1.00000000      1.00000000
      1.00000000      1.00000000      1.00000000      1.00000000      1.00000000      1.00000000      1.00000000      1.00000000      1.00000000      1.00000000      1.00000000      1.00000000      1.00000000      1.00000000      1.00000000      1.00000000      1.00000000      1.00000000      1.00000000      1.00000000
      1.00000000      1.00000000      1.00000000      1.00000000      1.00000000      1.00000000      1.00000000      1.00000000      1.00000000      1.00000000      1.00000000      1.00000000      1.00000000      1.00000000      1.00000000      1.00000000      1.00000000      1.00000000      1.00000000      1.00000000
      1.00000000      1.00000000      1.00000000      1.00000000</v>
    <i name="NUPDOWN">     -1.00000000</i>
    <i type="logical" name="LSORBIT"> F  </i>
    <v name="SAXIS">      0.00000000      0.00000000      1.00000000</v>
    <i type="logical" name="LSPIRAL"> F  </i>
    <v name="QSPIRAL">      0.00000000      0.00000000      0.00000000</v>
    <i type="logical" name="LZEROZ"> F  </i>
   </separator>
   <separator name="electronic exchange-correlation" >
    <i type="logical" name="LASPH"> F  </i>
    <i type="logical" name="LMETAGGA"> F  </i>
   </separator>
   <separator name="electronic convergence" >
    <i type="int" name="NELM">    60</i>
    <i type="int" name="NELMDL">     0</i>
    <i type="int" name="NELMIN">     2</i>
    <i name="ENINI">    367.94500000</i>
    <separator name="electronic convergence detail" >
     <i type="logical" name="LDIAG"> T  </i>
     <i type="logical" name="LSUBROT"> F  </i>
     <i name="WEIMIN">      0.00100000</i>
     <i name="EBREAK">      0.00000000</i>
     <i name="DEPER">      0.30000000</i>
     <i type="int" name="NRMM">     4</i>
     <i name="TIME">      0.40000000</i>
    </separator>
   </separator>
   <separator name="electronic mixer" >
    <i name="AMIX">      0.40000000</i>
    <i name="BMIX">      1.00000000</i>
    <i name="AMIN">      0.10000000</i>
    <i name="AMIX_MAG">      1.60000000</i>
    <i name="BMIX_MAG">      1.00000000</i>
    <separator name="electronic mixer details" >
     <i type="int" name="IMIX">     4</i>
     <i type="logical" name="MIXFIRST"> F  </i>
     <i type="int" name="MAXMIX">   -45</i>
     <i name="WC">    100.00000000</i>
     <i type="int" name="INIMIX">     1</i>
     <i type="int" name="MIXPRE">     1</i>
     <i type="int" name="MREMOVE">     5</i>
    </separator>
   </separator>
   <separator name="electronic dipolcorrection" >
    <i type="logical" name="LDIPOL"> F  </i>
    <i type="logical" name="LMONO"> F  </i>
    <i type="int" name="IDIPOL">     0</i>
    <i name="EPSILON">      1.00000000</i>
    <v name="DIPOL">   -100.00000000   -100.00000000   -100.00000000</v>
    <i name="EFIELD">      0.00000000</i>
   </separator>
  </separator>
  <separator name="grids" >
   <i type="int" name="NGX">    70</i>
   <i type="int" name="NGY">    70</i>
   <i type="int" name="NGZ">    70</i>
   <i type="int" name="NGXF">   140</i>
   <i type="int" name="NGYF">   140</i>
   <i type="int" name="NGZF">   140</i>
   <i type="logical" name="ADDGRID"> F  </i>
  </separator>
  <separator name="ionic" >
   <i type="int" name="NSW">   805</i>
   <i type="int" name="IBRION">     6</i>
   <i type="int" name="ISIF">     2</i>
   <i name="PSTRESS">      0.00000000</i>
   <i name="EDIFFG">      0.00001000</i>
   <i type="int" name="NFREE">     2</i>
   <i name="POTIM">      0.50000000</i>
   <i name="SMASS">     -3.00000000</i>
   <i name="SCALEE">      1.00000000</i>
  </separator>
  <separator name="ionic md" >
   <i name="TEBEG">      0.00010000</i>
   <i name="TEEND">      0.00010000</i>
   <i type="int" name="NBLOCK">     1</i>
   <i type="int" name="KBLOCK">     1</i>
   <i type="int" name="NPACO">   256</i>
   <i name="APACO">     16.00000000</i>
  </separator>
  <separator name="symmetry" >
   <i type="int" name="ISYM">     2</i>
   <i name="SYMPREC">      0.00001000</i>
  </separator>
  <separator name="dos" >
   <i type="logical" name="LORBIT"> F  </i>
   <v name="RWIGS">     -1.00000000</v>
   <i type="int" name="NEDOS">   301</i>
   <i name="EMIN">     10.00000000</i>
   <i name="EMAX">    -10.00000000</i>
   <i name="EFERMI">      0.00000000</i>
  </separator>
  <separator name="writing" >
   <i type="int" name="NWRITE">     0</i>
   <i type="logical" name="LWAVE"> T  </i>
   <i type="logical" name="LCHARG"> T  </i>
   <i type="logical" name="LPARD"> F  </i>
   <i type="logical" name="LVTOT"> F  </i>
   <i type="logical" name="LVHAR"> F  </i>
   <i type="logical" name="LELF"> F  </i>
   <i type="logical" name="LOPTICS"> F  </i>
   <v name="STM">      0.00000000      0.00000000      0.00000000      0.00000000      0.00000000      0.00000000      0.00000000</v>
  </separator>
  <separator name="performance" >
   <i type="int" name="NPAR">     8</i>
   <i type="int" name="NSIM">     4</i>
   <i type="int" name="NBLK">    -1</i>
   <i type="logical" name="LPLANE"> T  </i>
   <i type="logical" name="LSCALAPACK"> T  </i>
   <i type="logical" name="LSCAAWARE"> F  </i>
   <i type="logical" name="LSCALU"> F  </i>
   <i type="logical" name="LASYNC"> F  </i>
   <i type="logical" name="LORBITALREAL"> F  </i>
  </separator>
  <separator name="miscellaneous" >
   <i type="int" name="IDIOT">     3</i>
   <i type="logical" name="LMUSIC"> F  </i>
   <v name="POMASS">     58.69000000</v>
   <v name="DARWINR">      0.00000000</v>
   <v name="DARWINV">      1.00000000</v>
   <i type="logical" name="LCORR"> T  </i>
  </separator>
  <i type="logical" name="GGA_COMPAT"> T  </i>
  <i type="logical" name="LBERRY"> F  </i>
  <i type="int" name="ICORELEVEL">     0</i>
  <i type="logical" name="LDAU"> F  </i>
  <i type="int" name="I_CONSTRAINED_M">     0</i>
  <separator name="electronic exchange-correlation" >
   <i type="string" name="GGA">--</i>
   <i type="int" name="VOSKOWN">     0</i>
   <i type="logical" name="LHFCALC"> F  </i>
   <i type="string" name="PRECFOCK"></i>
   <i type="logical" name="LSYMGRAD"> F  </i>
   <i type="logical" name="LHFONE"> F  </i>
   <i type="logical" name="LRHFCALC"> F  </i>
   <i type="logical" name="LTHOMAS"> F  </i>
   <i type="logical" name="LMODELHF"> F  </i>
   <i name="ENCUT4O">     -1.00000000</i>
   <i type="int" name="EXXOEP">     0</i>
   <i type="int" name="FOURORBIT">     0</i>
   <i name="AEXX">      0.00000000</i>
   <i name="HFALPHA">      0.00000000</i>
   <i name="MCALPHA">      0.00000000</i>
   <i name="ALDAX">      1.00000000</i>
   <i name="AGGAX">      1.00000000</i>
   <i name="ALDAC">      1.00000000</i>
   <i name="AGGAC">      1.00000000</i>
   <i type="int" name="NKREDX">     1</i>
   <i type="int" name="NKREDY">     1</i>
   <i type="int" name="NKREDZ">     1</i>
   <i type="logical" name="SHIFTRED"> F  </i>
   <i type="logical" name="ODDONLY"> F  </i>
   <i type="logical" name="EVENONLY"> F  </i>
   <i type="int" name="LMAXFOCK">     0</i>
   <i type="int" name="NMAXFOCKAE">     0</i>
   <i type="logical" name="LFOCKAEDFT"> F  </i>
   <i name="HFSCREEN">      0.00000000</i>
   <i name="HFSCREENC">      0.00000000</i>
   <i type="int" name="NBANDSGWLOW">     0</i>
  </separator>
  <separator name="vdW DFT" >
   <i type="logical" name="LUSE_VDW"> F  </i>
   <i name="Zab_VDW">     -0.84910000</i>
   <i name="PARAM1">      0.12340000</i>
   <i name="PARAM2">      1.00000000</i>
   <i name="PARAM3">      0.00000000</i>
  </separator>
  <separator name="model GW" >
   <i type="int" name="MODEL_GW">     0</i>
   <i name="MODEL_EPS0">      7.82503374</i>
   <i name="MODEL_ALPHA">      1.00000000</i>
  </separator>
  <separator name="linear response parameters" >
   <i type="logical" name="LEPSILON"> F  </i>
   <i type="logical" name="LRPA"> F  </i>
   <i type="logical" name="LNABLA"> F  </i>
   <i type="logical" name="LVEL"> F  </i>
   <i type="int" name="KINTER">     0</i>
   <i name="CSHIFT">      0.10000000</i>
   <i name="OMEGAMAX">     -1.00000000</i>
   <i name="DEG_THRESHOLD">      0.00200000</i>
  </separator>
  <separator name="orbital magnetization" >
   <i type="logical" name="NUCIND"> F  </i>
   <v name="MAGPOS">      0.00000000      0.00000000      0.00000000</v>
   <i type="logical" name="LNICSALL"> T  </i>
   <i type="logical" name="ORBITALMAG"> F  </i>
   <i type="logical" name="LMAGBLOCH"> F  </i>
   <i type="logical" name="LCHIMAG"> F  </i>
   <i type="logical" name="LGAUGE"> T  </i>
   <i type="int" name="MAGATOM">     0</i>
   <v name="MAGDIPOL">      0.00000000      0.00000000      0.00000000</v>
   <v name="AVECCONST">      0.00000000      0.00000000      0.00000000</v>
  </separator>
  <separator name="response functions" >
   <i type="logical" name="LADDER"> F  </i>
   <i type="logical" name="LFXC"> F  </i>
   <i type="logical" name="LHARTREE"> T  </i>
   <i type="int" name="IBSE">     0</i>
   <v type="int" name="KPOINT">    -1     0     0     0</v>
   <i type="logical" name="LTCTE"> F  </i>
   <i type="logical" name="LTETE"> F  </i>
   <i type="logical" name="LTRIPLET"> F  </i>
   <i type="logical" name="LFXCEPS"> F  </i>
   <i type="logical" name="LFXHEG"> F  </i>
   <i type="int" name="NATURALO">     0</i>
   <i type="logical" name="L2ORDER"> F  </i>
   <i type="logical" name="LUSEW"> F  </i>
   <i name="ENCUTGW">     -2.00000000</i>
   <i name="ENCUTGWSOFT">     -2.00000000</i>
   <i name="ENCUTLF">     -1.00000000</i>
   <i type="int" name="LMAXMP2">    -1</i>
   <i name="SCISSOR">      0.00000000</i>
   <i type="int" name="NOMEGA">     0</i>
   <i type="int" name="NOMEGAR">     0</i>
   <i type="int" name="NBANDSGW">    -1</i>
   <i type="int" name="NBANDSO">    -1</i>
   <i type="int" name="NBANDSV">    -1</i>
   <i type="int" name="NELM">     1</i>
   <i type="int" name="NELMHF">     1</i>
   <i type="int" name="DIM">     3</i>
   <i type="int" name="ANTIRES">     0</i>
   <i name="OMEGAMAX">    -30.00000000</i>
   <i name="OMEGAMIN">    -30.00000000</i>
   <i name="OMEGATL">   -200.00000000</i>
   <i type="int" name="OMEGAGRID">     0</i>
   <i name="CSHIFT">     -0.10000000</i>
   <i type="logical" name="SELFENERGY"> F  </i>
   <i type="logical" name="LSPECTRAL"> F  </i>
   <i type="logical" name="LSPECTRALGW"> F  </i>
   <i type="logical" name="LSINGLES"> F  </i>
   <i type="logical" name="LFERMIGW"> F  </i>
   <i type="logical" name="ODDONLYGW"> F  </i>
   <i type="logical" name="EVENONLYGW"> F  </i>
   <i type="int" name="NKREDLFX">     1</i>
   <i type="int" name="NKREDLFY">     1</i>
   <i type="int" name="NKREDLFZ">     1</i>
   <i type="int" name="MAXMEM">  1800</i>
   <i type="int" name="TELESCOPE">     0</i>
   <i type="int" name="TAUPAR">     1</i>
   <i type="int" name="OMEGAPAR">    -1</i>
   <i name="LAMBDA">      1.00000000</i>
  </separator>
  <separator name="External order field" >
   <i name="OFIELD_KAPPA">      0.00000000</i>
   <v name="OFIELD_K">      0.00000000      0.00000000      0.00000000</v>
   <i name="OFIELD_Q6_NEAR">      0.00000000</i>
   <i name="OFIELD_Q6_FAR">      0.00000000</i>
   <i name="OFIELD_A">      0.00000000</i>
  </separator>
 </parameters>
 <atominfo>
  <atoms>      64 </atoms>
  <types>       1 </types>
  <array name="atoms" >
   <dimension dim="1">ion</dimension>
   <field type="string">element</field>
   <field type="int">atomtype</field>
   <set>
    <rc><c>Ni</c><c>   1</c></rc>
    <rc><c>Ni</c><c>   1</c></rc>
    <rc><c>Ni</c><c>   1</c></rc>
    <rc><c>Ni</c><c>   1</c></rc>
    <rc><c>Ni</c><c>   1</c></rc>
    <rc><c>Ni</c><c>   1</c></rc>
    <rc><c>Ni</c><c>   1</c></rc>
    <rc><c>Ni</c><c>   1</c></rc>
    <rc><c>Ni</c><c>   1</c></rc>
    <rc><c>Ni</c><c>   1</c></rc>
    <rc><c>Ni</c><c>   1</c></rc>
    <rc><c>Ni</c><c>   1</c></rc>
    <rc><c>Ni</c><c>   1</c></rc>
    <rc><c>Ni</c><c>   1</c></rc>
    <rc><c>Ni</c><c>   1</c></rc>
    <rc><c>Ni</c><c>   1</c></rc>
    <rc><c>Ni</c><c>   1</c></rc>
    <rc><c>Ni</c><c>   1</c></rc>
    <rc><c>Ni</c><c>   1</c></rc>
    <rc><c>Ni</c><c>   1</c></rc>
    <rc><c>Ni</c><c>   1</c></rc>
    <rc><c>Ni</c><c>   1</c></rc>
    <rc><c>Ni</c><c>   1</c></rc>
    <rc><c>Ni</c><c>   1</c></rc>
    <rc><c>Ni</c><c>   1</c></rc>
    <rc><c>Ni</c><c>   1</c></rc>
    <rc><c>Ni</c><c>   1</c></rc>
    <rc><c>Ni</c><c>   1</c></rc>
    <rc><c>Ni</c><c>   1</c></rc>
    <rc><c>Ni</c><c>   1</c></rc>
    <rc><c>Ni</c><c>   1</c></rc>
    <rc><c>Ni</c><c>   1</c></rc>
    <rc><c>Ni</c><c>   1</c></rc>
    <rc><c>Ni</c><c>   1</c></rc>
    <rc><c>Ni</c><c>   1</c></rc>
    <rc><c>Ni</c><c>   1</c></rc>
    <rc><c>Ni</c><c>   1</c></rc>
    <rc><c>Ni</c><c>   1</c></rc>
    <rc><c>Ni</c><c>   1</c></rc>
    <rc><c>Ni</c><c>   1</c></rc>
    <rc><c>Ni</c><c>   1</c></rc>
    <rc><c>Ni</c><c>   1</c></rc>
    <rc><c>Ni</c><c>   1</c></rc>
    <rc><c>Ni</c><c>   1</c></rc>
    <rc><c>Ni</c><c>   1</c></rc>
    <rc><c>Ni</c><c>   1</c></rc>
    <rc><c>Ni</c><c>   1</c></rc>
    <rc><c>Ni</c><c>   1</c></rc>
    <rc><c>Ni</c><c>   1</c></rc>
    <rc><c>Ni</c><c>   1</c></rc>
    <rc><c>Ni</c><c>   1</c></rc>
    <rc><c>Ni</c><c>   1</c></rc>
    <rc><c>Ni</c><c>   1</c></rc>
    <rc><c>Ni</c><c>   1</c></rc>
    <rc><c>Ni</c><c>   1</c></rc>
    <rc><c>Ni</c><c>   1</c></rc>
    <rc><c>Ni</c><c>   1</c></rc>
    <rc><c>Ni</c><c>   1</c></rc>
    <rc><c>Ni</c><c>   1</c></rc>
    <rc><c>Ni</c><c>   1</c></rc>
    <rc><c>Ni</c><c>   1</c></rc>
    <rc><c>Ni</c><c>   1</c></rc>
    <rc><c>Ni</c><c>   1</c></rc>
    <rc><c>Ni</c><c>   1</c></rc>
   </set>
  </array>
  <array name="atomtypes" >
   <dimension dim="1">type</dimension>
   <field type="int">atomspertype</field>
   <field type="string">element</field>
   <field>mass</field>
   <field>valence</field>
   <field type="string">pseudopotential</field>
   <set>
    <rc><c>  64</c><c>Ni</c><c>     58.69000000</c><c>     16.00000000</c><c> PAW_PBE Ni_pv 06Sep2000                </c></rc>
   </set>
  </array>
 </atominfo>
 <structure name="initialpos" >
  <crystal>
   <varray name="basis" >
    <v>       0.00000000       7.47300000       7.47300000 </v>
    <v>       7.47300000       0.00000000       7.47300000 </v>
    <v>       7.47300000       7.47300000       0.00000000 </v>
   </varray>
   <i name="volume">    834.67026563 </i>
   <varray name="rec_basis" >
    <v>      -0.06690753       0.06690753       0.06690753 </v>
    <v>       0.06690753      -0.06690753       0.06690753 </v>
    <v>       0.06690753       0.06690753      -0.06690753 </v>
   </varray>
  </crystal>
  <varray name="positions" >
   <v>       0.00000000       0.00000000       0.00000000 </v>
   <v>       0.00000000       0.00000000       0.25000000 </v>
   <v>       0.00000000       0.00000000       0.50000000 </v>
   <v>       0.00000000       0.00000000       0.75000000 </v>
   <v>       0.00000000       0.25000000       0.00000000 </v>
   <v>       0.00000000       0.25000000       0.25000000 </v>
   <v>       0.00000000       0.25000000       0.50000000 </v>
   <v>       0.00000000       0.25000000       0.75000000 </v>
   <v>       0.00000000       0.50000000       0.00000000 </v>
   <v>       0.00000000       0.50000000       0.25000000 </v>
   <v>       0.00000000       0.50000000       0.50000000 </v>
   <v>       0.00000000       0.50000000       0.75000000 </v>
   <v>       0.00000000       0.75000000       0.00000000 </v>
   <v>       0.00000000       0.75000000       0.25000000 </v>
   <v>       0.00000000       0.75000000       0.50000000 </v>
   <v>       0.00000000       0.75000000       0.75000000 </v>
   <v>       0.25000000       0.00000000       0.00000000 </v>
   <v>       0.25000000       0.00000000       0.25000000 </v>
   <v>       0.25000000       0.00000000       0.50000000 </v>
   <v>       0.25000000       0.00000000       0.75000000 </v>
   <v>       0.25000000       0.25000000       0.00000000 </v>
   <v>       0.25000000       0.25000000       0.25000000 </v>
   <v>       0.25000000       0.25000000       0.50000000 </v>
   <v>       0.25000000       0.25000000       0.75000000 </v>
   <v>       0.25000000       0.50000000       0.00000000 </v>
   <v>       0.25000000       0.50000000       0.25000000 </v>
   <v>       0.25000000       0.50000000       0.50000000 </v>
   <v>       0.25000000       0.50000000       0.75000000 </v>
   <v>       0.25000000       0.75000000       0.00000000 </v>
   <v>       0.25000000       0.75000000       0.25000000 </v>
   <v>       0.25000000       0.75000000       0.50000000 </v>
   <v>       0.25000000       0.75000000       0.75000000 </v>
   <v>       0.50000000       0.00000000       0.00000000 </v>
   <v>       0.50000000       0.00000000       0.25000000 </v>
   <v>       0.50000000       0.00000000       0.50000000 </v>
   <v>       0.50000000       0.00000000       0.75000000 </v>
   <v>       0.50000000       0.25000000       0.00000000 </v>
   <v>       0.50000000       0.25000000       0.25000000 </v>
   <v>       0.50000000       0.25000000       0.50000000 </v>
   <v>       0.50000000       0.25000000       0.75000000 </v>
   <v>       0.50000000       0.50000000       0.00000000 </v>
   <v>       0.50000000       0.50000000       0.25000000 </v>
   <v>       0.50000000       0.50000000       0.50000000 </v>
   <v>       0.50000000       0.50000000       0.75000000 </v>
   <v>       0.50000000       0.75000000       0.00000000 </v>
   <v>       0.50000000       0.75000000       0.25000000 </v>
   <v>       0.50000000       0.75000000       0.50000000 </v>
   <v>       0.50000000       0.75000000       0.75000000 </v>
   <v>       0.75000000       0.00000000       0.00000000 </v>
   <v>       0.75000000       0.00000000       0.25000000 </v>
   <v>       0.75000000       0.00000000       0.50000000 </v>
   <v>       0.75000000       0.00000000       0.75000000 </v>
   <v>       0.75000000       0.25000000       0.00000000 </v>
   <v>       0.75000000       0.25000000       0.25000000 </v>
   <v>       0.75000000       0.25000000       0.50000000 </v>
   <v>       0.75000000       0.25000000       0.75000000 </v>
   <v>       0.75000000       0.50000000       0.00000000 </v>
   <v>       0.75000000       0.50000000       0.25000000 </v>
   <v>       0.75000000       0.50000000       0.50000000 </v>
   <v>       0.75000000       0.50000000       0.75000000 </v>
   <v>       0.75000000       0.75000000       0.00000000 </v>
   <v>       0.75000000       0.75000000       0.25000000 </v>
   <v>       0.75000000       0.75000000       0.50000000 </v>
   <v>       0.75000000       0.75000000       0.75000000 </v>
  </varray>
 </structure>
 <calculation>
  <scstep>
   <time name="dav">  268.89  268.75</time>
   <time name="total">  269.41  269.29</time>
   <energy>
    <i name="alphaZ">   8266.97428417 </i>
    <i name="ewald">-144746.26977670 </i>
    <i name="hartreedc"> -67168.00643356 </i>
    <i name="XCdc">   5681.52194871 </i>
    <i name="pawpsdc"> 172361.15642774 </i>
    <i name="pawaedc">-181272.45834873 </i>
    <i name="eentropy">     -0.00942585 </i>
    <i name="bandstr">  -3831.25988406 </i>
    <i name="atom"> 224013.29143063 </i>
    <i name="e_fr_energy">  13304.94022235 </i>
    <i name="e_wo_entrp">  13304.94964821 </i>
    <i name="e_0_energy">  13304.94336431 </i>
   </energy>
  </scstep>
  <scstep>
   <time name="dav">  236.88  236.76</time>
   <time name="total">  236.89  236.77</time>
   <energy>
    <i name="e_fr_energy">    676.80896887 </i>
    <i name="e_wo_entrp">    676.81133166 </i>
    <i name="e_0_energy">    676.80975647 </i>
   </energy>
  </scstep>
  <scstep>
   <time name="dav">  243.88  243.96</time>
   <time name="total">  243.89  243.96</time>
   <energy>
    <i name="e_fr_energy">   -363.10284797 </i>
    <i name="e_wo_entrp">   -363.17175593 </i>
    <i name="e_0_energy">   -363.12581729 </i>
   </energy>
  </scstep>
  <scstep>
   <time name="dav">  251.46  251.39</time>
   <time name="total">  251.47  251.40</time>
   <energy>
    <i name="e_fr_energy">   -417.39577805 </i>
    <i name="e_wo_entrp">   -417.52645158 </i>
    <i name="e_0_energy">   -417.43933589 </i>
   </energy>
  </scstep>
  <scstep>
   <time name="dav">  248.46  248.67</time>
   <time name="total">  260.35  260.58</time>
   <energy>
    <i name="e_fr_energy">   -418.24048785 </i>
    <i name="e_wo_entrp">   -418.37170959 </i>
    <i name="e_0_energy">   -418.28422843 </i>
   </energy>
  </scstep>
  <scstep>
   <time name="dav">  246.86  246.99</time>
   <time name="total">  258.73  258.86</time>
   <energy>
    <i name="e_fr_energy">   -399.94936818 </i>
    <i name="e_wo_entrp">   -399.50825688 </i>
    <i name="e_0_energy">   -399.80233108 </i>
   </energy>
  </scstep>
  <scstep>
   <time name="dav">  245.19  245.15</time>
   <time name="total">  257.26  257.21</time>
   <energy>
    <i name="e_fr_energy">   -356.99285302 </i>
    <i name="e_wo_entrp">   -356.70724029 </i>
    <i name="e_0_energy">   -356.89764878 </i>
   </energy>
  </scstep>
  <scstep>
   <time name="dav">  244.92  244.81</time>
   <time name="total">  256.94  256.82</time>
   <energy>
    <i name="e_fr_energy">   -357.19454830 </i>
    <i name="e_wo_entrp">   -356.91612473 </i>
    <i name="e_0_energy">   -357.10174044 </i>
   </energy>
  </scstep>
  <scstep>
   <time name="dav">  249.35  249.27</time>
   <time name="total">  261.35  261.27</time>
   <energy>
    <i name="e_fr_energy">   -357.17901010 </i>
    <i name="e_wo_entrp">   -356.89420126 </i>
    <i name="e_0_energy">   -357.08407382 </i>
   </energy>
  </scstep>
  <scstep>
   <time name="dav">  261.53  261.55</time>
   <time name="total">  273.53  273.53</time>
   <energy>
    <i name="e_fr_energy">   -357.18371014 </i>
    <i name="e_wo_entrp">   -356.89990284 </i>
    <i name="e_0_energy">   -357.08910771 </i>
   </energy>
  </scstep>
  <scstep>
   <time name="dav">  245.64  245.53</time>
   <time name="total">  257.61  257.49</time>
   <energy>
    <i name="e_fr_energy">   -357.18474946 </i>
    <i name="e_wo_entrp">   -356.90249396 </i>
    <i name="e_0_energy">   -357.09066430 </i>
   </energy>
  </scstep>
  <scstep>
   <time name="dav">  262.84  262.68</time>
   <time name="total">  274.86  274.69</time>
   <energy>
    <i name="e_fr_energy">   -357.18498982 </i>
    <i name="e_wo_entrp">   -356.90219631 </i>
    <i name="e_0_energy">   -357.09072532 </i>
   </energy>
  </scstep>
  <scstep>
   <time name="dav">  246.07  245.93</time>
   <time name="total">  258.13  257.99</time>
   <energy>
    <i name="e_fr_energy">   -357.18499382 </i>
    <i name="e_wo_entrp">   -356.90198929 </i>
    <i name="e_0_energy">   -357.09065897 </i>
   </energy>
  </scstep>
  <scstep>
   <time name="dav">  187.89  187.79</time>
   <time name="total">  199.92  199.80</time>
   <energy>
    <i name="e_fr_energy">   -357.18499109 </i>
    <i name="e_wo_entrp">   -356.90196696 </i>
    <i name="e_0_energy">   -357.09064971 </i>
   </energy>
  </scstep>
  <scstep>
   <time name="dav">  178.95  178.89</time>
   <time name="total">  191.00  190.93</time>
   <energy>
    <i name="e_fr_energy">   -357.18498129 </i>
    <i name="e_wo_entrp">   -356.90199478 </i>
    <i name="e_0_energy">   -357.09065246 </i>
   </energy>
  </scstep>
  <scstep>
   <time name="dav">  150.26  150.25</time>
   <time name="total">  162.32  162.30</time>
   <energy>
    <i name="e_fr_energy">   -357.18497882 </i>
    <i name="e_wo_entrp">   -356.90199746 </i>
    <i name="e_0_energy">   -357.09065170 </i>
   </energy>
  </scstep>
  <scstep>
   <time name="dav">  149.96  149.88</time>
   <time name="total">  150.48  150.39</time>
   <energy>
    <i name="alphaZ">   8266.97428417 </i>
    <i name="ewald">-144746.26977670 </i>
    <i name="hartreedc"> -64913.13135624 </i>
    <i name="XCdc">   5598.65516872 </i>
    <i name="pawpsdc"> 170454.47305847 </i>
    <i name="pawaedc">-179471.41128163 </i>
    <i name="eentropy">     -0.28298170 </i>
    <i name="bandstr"> -19559.48352455 </i>
    <i name="atom"> 224013.29143063 </i>
    <i name="e_fr_energy">   -357.18497882 </i>
    <i name="e_wo_entrp">   -356.90199712 </i>
    <i name="e_0_energy">   -357.09065158 </i>
   </energy>
  </scstep>
  <structure>
   <crystal>
    <varray name="basis" >
     <v>       0.00000000       7.47300000       7.47300000 </v>
     <v>       7.47300000       0.00000000       7.47300000 </v>
     <v>       7.47300000       7.47300000       0.00000000 </v>
    </varray>
    <i name="volume">    834.67026563 </i>
    <varray name="rec_basis" >
     <v>      -0.06690753       0.06690753       0.06690753 </v>
     <v>       0.06690753      -0.06690753       0.06690753 </v>
     <v>       0.06690753       0.06690753      -0.06690753 </v>
    </varray>
   </crystal>
   <varray name="positions" >
    <v>       0.00000000       0.00000000       0.00000000 </v>
    <v>       0.00000000       0.00000000       0.25000000 </v>
    <v>       0.00000000       0.00000000       0.50000000 </v>
    <v>       0.00000000       0.00000000       0.75000000 </v>
    <v>       0.00000000       0.25000000       0.00000000 </v>
    <v>       0.00000000       0.25000000       0.25000000 </v>
    <v>       0.00000000       0.25000000       0.50000000 </v>
    <v>       0.00000000       0.25000000       0.75000000 </v>
    <v>       0.00000000       0.50000000       0.00000000 </v>
    <v>       0.00000000       0.50000000       0.25000000 </v>
    <v>       0.00000000       0.50000000       0.50000000 </v>
    <v>       0.00000000       0.50000000       0.75000000 </v>
    <v>       0.00000000       0.75000000       0.00000000 </v>
    <v>       0.00000000       0.75000000       0.25000000 </v>
    <v>       0.00000000       0.75000000       0.50000000 </v>
    <v>       0.00000000       0.75000000       0.75000000 </v>
    <v>       0.25000000       0.00000000       0.00000000 </v>
    <v>       0.25000000       0.00000000       0.25000000 </v>
    <v>       0.25000000       0.00000000       0.50000000 </v>
    <v>       0.25000000       0.00000000       0.75000000 </v>
    <v>       0.25000000       0.25000000       0.00000000 </v>
    <v>       0.25000000       0.25000000       0.25000000 </v>
    <v>       0.25000000       0.25000000       0.50000000 </v>
    <v>       0.25000000       0.25000000       0.75000000 </v>
    <v>       0.25000000       0.50000000       0.00000000 </v>
    <v>       0.25000000       0.50000000       0.25000000 </v>
    <v>       0.25000000       0.50000000       0.50000000 </v>
    <v>       0.25000000       0.50000000       0.75000000 </v>
    <v>       0.25000000       0.75000000       0.00000000 </v>
    <v>       0.25000000       0.75000000       0.25000000 </v>
    <v>       0.25000000       0.75000000       0.50000000 </v>
    <v>       0.25000000       0.75000000       0.75000000 </v>
    <v>       0.50000000       0.00000000       0.00000000 </v>
    <v>       0.50000000       0.00000000       0.25000000 </v>
    <v>       0.50000000       0.00000000       0.50000000 </v>
    <v>       0.50000000       0.00000000       0.75000000 </v>
    <v>       0.50000000       0.25000000       0.00000000 </v>
    <v>       0.50000000       0.25000000       0.25000000 </v>
    <v>       0.50000000       0.25000000       0.50000000 </v>
    <v>       0.50000000       0.25000000       0.75000000 </v>
    <v>       0.50000000       0.50000000       0.00000000 </v>
    <v>       0.50000000       0.50000000       0.25000000 </v>
    <v>       0.50000000       0.50000000       0.50000000 </v>
    <v>       0.50000000       0.50000000       0.75000000 </v>
    <v>       0.50000000       0.75000000       0.00000000 </v>
    <v>       0.50000000       0.75000000       0.25000000 </v>
    <v>       0.50000000       0.75000000       0.50000000 </v>
    <v>       0.50000000       0.75000000       0.75000000 </v>
    <v>       0.75000000       0.00000000       0.00000000 </v>
    <v>       0.75000000       0.00000000       0.25000000 </v>
    <v>       0.75000000       0.00000000       0.50000000 </v>
    <v>       0.75000000       0.00000000       0.75000000 </v>
    <v>       0.75000000       0.25000000       0.00000000 </v>
    <v>       0.75000000       0.25000000       0.25000000 </v>
    <v>       0.75000000       0.25000000       0.50000000 </v>
    <v>       0.75000000       0.25000000       0.75000000 </v>
    <v>       0.75000000       0.50000000       0.00000000 </v>
    <v>       0.75000000       0.50000000       0.25000000 </v>
    <v>       0.75000000       0.50000000       0.50000000 </v>
    <v>       0.75000000       0.50000000       0.75000000 </v>
    <v>       0.75000000       0.75000000       0.00000000 </v>
    <v>       0.75000000       0.75000000       0.25000000 </v>
    <v>       0.75000000       0.75000000       0.50000000 </v>
    <v>       0.75000000       0.75000000       0.75000000 </v>
   </varray>
  </structure>
  <varray name="forces" >
   <v>       0.00000000      -0.00000000      -0.00000000 </v>
   <v>       0.00000000       0.00000000       0.00000000 </v>
   <v>      -0.00000000       0.00000000       0.00000000 </v>
   <v>      -0.00000000      -0.00000000       0.00000000 </v>
   <v>       0.00000000       0.00000000       0.00000000 </v>
   <v>      -0.00000000       0.00000000       0.00000000 </v>
   <v>       0.00000000       0.00000000       0.00000000 </v>
   <v>       0.00000000       0.00000000       0.00000000 </v>
   <v>      -0.00000000       0.00000000      -0.00000000 </v>
   <v>       0.00000000      -0.00000000      -0.00000000 </v>
   <v>       0.00000000      -0.00000000      -0.00000000 </v>
   <v>       0.00000000      -0.00000000      -0.00000000 </v>
   <v>       0.00000000       0.00000000      -0.00000000 </v>
   <v>       0.00000000      -0.00000000      -0.00000000 </v>
   <v>      -0.00000000      -0.00000000       0.00000000 </v>
   <v>      -0.00000000      -0.00000000      -0.00000000 </v>
   <v>       0.00000000       0.00000000      -0.00000000 </v>
   <v>       0.00000000       0.00000000       0.00000000 </v>
   <v>      -0.00000000      -0.00000000      -0.00000000 </v>
   <v>       0.00000000      -0.00000000      -0.00000000 </v>
   <v>      -0.00000000       0.00000000       0.00000000 </v>
   <v>      -0.00000000       0.00000000       0.00000000 </v>
   <v>       0.00000000       0.00000000       0.00000000 </v>
   <v>      -0.00000000      -0.00000000      -0.00000000 </v>
   <v>      -0.00000000       0.00000000      -0.00000000 </v>
   <v>      -0.00000000      -0.00000000       0.00000000 </v>
   <v>       0.00000000      -0.00000000       0.00000000 </v>
   <v>      -0.00000000       0.00000000      -0.00000000 </v>
   <v>      -0.00000000       0.00000000      -0.00000000 </v>
   <v>       0.00000000      -0.00000000       0.00000000 </v>
   <v>       0.00000000       0.00000000      -0.00000000 </v>
   <v>      -0.00000000       0.00000000      -0.00000000 </v>
   <v>      -0.00000000      -0.00000000      -0.00000000 </v>
   <v>       0.00000000       0.00000000       0.00000000 </v>
   <v>      -0.00000000       0.00000000      -0.00000000 </v>
   <v>      -0.00000000       0.00000000       0.00000000 </v>
   <v>       0.00000000       0.00000000      -0.00000000 </v>
   <v>      -0.00000000       0.00000000      -0.00000000 </v>
   <v>       0.00000000       0.00000000       0.00000000 </v>
   <v>       0.00000000      -0.00000000       0.00000000 </v>
   <v>      -0.00000000      -0.00000000      -0.00000000 </v>
   <v>      -0.00000000      -0.00000000      -0.00000000 </v>
   <v>       0.00000000      -0.00000000       0.00000000 </v>
   <v>      -0.00000000       0.00000000      -0.00000000 </v>
   <v>       0.00000000       0.00000000      -0.00000000 </v>
   <v>       0.00000000      -0.00000000       0.00000000 </v>
   <v>      -0.00000000      -0.00000000       0.00000000 </v>
   <v>      -0.00000000       0.00000000       0.00000000 </v>
   <v>       0.00000000      -0.00000000      -0.00000000 </v>
   <v>       0.00000000       0.00000000       0.00000000 </v>
   <v>      -0.00000000       0.00000000       0.00000000 </v>
   <v>      -0.00000000      -0.00000000       0.00000000 </v>
   <v>      -0.00000000      -0.00000000      -0.00000000 </v>
   <v>       0.00000000       0.00000000       0.00000000 </v>
   <v>       0.00000000      -0.00000000       0.00000000 </v>
   <v>      -0.00000000      -0.00000000       0.00000000 </v>
   <v>      -0.00000000       0.00000000      -0.00000000 </v>
   <v>      -0.00000000      -0.00000000      -0.00000000 </v>
   <v>       0.00000000      -0.00000000       0.00000000 </v>
   <v>      -0.00000000      -0.00000000      -0.00000000 </v>
   <v>      -0.00000000      -0.00000000      -0.00000000 </v>
   <v>       0.00000000      -0.00000000      -0.00000000 </v>
   <v>      -0.00000000       0.00000000       0.00000000 </v>
   <v>       0.00000000      -0.00000000      -0.00000000 </v>
  </varray>
  <varray name="stress" >
   <v>    -352.45341844      -0.00000000      -0.00000000 </v>
   <v>       0.00000000    -352.45341844      -0.00000000 </v>
   <v>       0.00000000       0.00000000    -352.45341844 </v>
  </varray>
  <energy>
   <i name="e_fr_energy">   -357.18497882 </i>
   <i name="e_wo_entrp">   -357.09065158 </i>
   <i name="e_0_energy">     -0.28298170 </i>
  </energy>
  <kpoints>
   <generation param="Gamma">
    <v type="int" name="divisions">       5        5        5 </v>
    <v name="usershift">      0.00000000       0.00000000       0.00000000 </v>
    <v name="genvec1">      0.20000000       0.00000000       0.00000000 </v>
    <v name="genvec2">      0.00000000       0.20000000       0.00000000 </v>
    <v name="genvec3">      0.00000000       0.00000000       0.20000000 </v>
    <v name="shift">      0.00000000       0.00000000       0.00000000 </v>
   </generation>
   <varray name="kpointlist" >
    <v>       0.00000000       0.00000000       0.00000000 </v>
    <v>       0.20000000       0.00000000       0.00000000 </v>
    <v>       0.40000000       0.00000000       0.00000000 </v>
    <v>       0.20000000       0.20000000       0.00000000 </v>
    <v>       0.40000000       0.20000000       0.00000000 </v>
    <v>      -0.40000000       0.20000000       0.00000000 </v>
    <v>      -0.20000000       0.20000000       0.00000000 </v>
    <v>       0.40000000       0.40000000       0.00000000 </v>
    <v>      -0.40000000       0.40000000       0.00000000 </v>
    <v>       0.00000000       0.20000000       0.20000000 </v>
    <v>       0.40000000       0.20000000       0.20000000 </v>
    <v>      -0.40000000       0.20000000       0.20000000 </v>
    <v>      -0.20000000       0.20000000       0.20000000 </v>
    <v>      -0.40000000       0.40000000       0.20000000 </v>
    <v>      -0.20000000       0.40000000       0.20000000 </v>
    <v>       0.40000000      -0.40000000       0.20000000 </v>
    <v>       0.00000000       0.40000000       0.40000000 </v>
    <v>      -0.20000000       0.40000000       0.40000000 </v>
   </varray>
   <varray name="weights" >
    <v>       0.00800000 </v>
    <v>       0.06400000 </v>
    <v>       0.06400000 </v>
    <v>       0.03200000 </v>
    <v>       0.12800000 </v>
    <v>       0.12800000 </v>
    <v>       0.06400000 </v>
    <v>       0.03200000 </v>
    <v>       0.06400000 </v>
    <v>       0.01600000 </v>
    <v>       0.03200000 </v>
    <v>       0.06400000 </v>
    <v>       0.06400000 </v>
    <v>       0.06400000 </v>
    <v>       0.06400000 </v>
    <v>       0.06400000 </v>
    <v>       0.01600000 </v>
    <v>       0.03200000 </v>
   </varray>
  </kpoints>
  <time name="totalsc"> 4362.41 4362.50</time>
 </calculation>
 <calculation>
  <scstep>
   <time name="dav">  530.11  530.71</time>
   <time name="total">  549.69  550.30</time>
   <energy>
    <i name="alphaZ">   8266.97428417 </i>
    <i name="ewald">-144746.13866056 </i>
    <i name="hartreedc"> -64913.26973321 </i>
    <i name="XCdc">   5598.65617274 </i>
    <i name="pawpsdc"> 170454.42955745 </i>
    <i name="pawaedc">-179471.36839170 </i>
    <i name="eentropy">     -0.28295985 </i>
    <i name="bandstr"> -19559.40007258 </i>
    <i name="atom"> 224013.29143063 </i>
    <i name="e_fr_energy">   -357.10837292 </i>
    <i name="e_wo_entrp">   -356.82541307 </i>
    <i name="e_0_energy">   -357.01405297 </i>
   </energy>
  </scstep>
  <scstep>
   <time name="dav">  430.91  431.71</time>
   <time name="total">  450.49  451.31</time>
   <energy>
    <i name="e_fr_energy">   -357.18538392 </i>
    <i name="e_wo_entrp">   -356.90258336 </i>
    <i name="e_0_energy">   -357.09111707 </i>
   </energy>
  </scstep>
  <scstep>
   <time name="dav">  499.49  500.67</time>
   <time name="total">  519.05  520.38</time>
   <energy>
    <i name="e_fr_energy">   -357.18685189 </i>
    <i name="e_wo_entrp">   -356.90398301 </i>
    <i name="e_0_energy">   -357.09256226 </i>
   </energy>
  </scstep>
  <scstep>
   <time name="dav">  495.57  501.02</time>
   <time name="total">  515.17  520.64</time>
   <energy>
    <i name="e_fr_energy">   -357.18666720 </i>
    <i name="e_wo_entrp">   -356.90382521 </i>
    <i name="e_0_energy">   -357.09238654 </i>
   </energy>
  </scstep>
  <scstep>
   <time name="dav">  450.95  451.98</time>
   <time name="total">  470.54  471.67</time>
   <energy>
    <i name="e_fr_energy">   -357.18469056 </i>
    <i name="e_wo_entrp">   -356.90172288 </i>
    <i name="e_0_energy">   -357.09036800 </i>
   </energy>
  </scstep>
  <scstep>
   <time name="dav">  528.19  529.55</time>
   <time name="total">  547.76  549.18</time>
   <energy>
    <i name="e_fr_energy">   -357.18468479 </i>
    <i name="e_wo_entrp">   -356.90171521 </i>
    <i name="e_0_energy">   -357.09036160 </i>
   </energy>
  </scstep>
  <scstep>
   <time name="dav">  471.54  476.57</time>
   <time name="total">  491.12  496.19</time>
   <energy>
    <i name="e_fr_energy">   -357.18464818 </i>
    <i name="e_wo_entrp">   -356.90167885 </i>
    <i name="e_0_energy">   -357.09032507 </i>
   </energy>
  </scstep>
  <scstep>
   <time name="dav">  456.12  457.09</time>
   <time name="total">  475.75  476.73</time>
   <energy>
    <i name="e_fr_energy">   -357.18462895 </i>
    <i name="e_wo_entrp">   -356.90165923 </i>
    <i name="e_0_energy">   -357.09030571 </i>
   </energy>
  </scstep>
  <scstep>
   <time name="dav">  458.70  459.80</time>
   <time name="total">  478.30  479.42</time>
   <energy>
    <i name="e_fr_energy">   -357.18466408 </i>
    <i name="e_wo_entrp">   -356.90169880 </i>
    <i name="e_0_energy">   -357.09034232 </i>
   </energy>
  </scstep>
  <scstep>
   <time name="dav">  523.65  525.43</time>
   <time name="total">  543.25  545.06</time>
   <energy>
    <i name="e_fr_energy">   -357.18453962 </i>
    <i name="e_wo_entrp">   -356.90157342 </i>
    <i name="e_0_energy">   -357.09021755 </i>
   </energy>
  </scstep>
  <scstep>
   <time name="dav">  538.76  543.12</time>
   <time name="total">  558.31  562.65</time>
   <energy>
    <i name="e_fr_energy">   -357.18454728 </i>
    <i name="e_wo_entrp">   -356.90158143 </i>
    <i name="e_0_energy">   -357.09022533 </i>
   </energy>
  </scstep>
  <scstep>
   <time name="dav">  463.16  463.51</time>
   <time name="total">  482.76  483.10</time>
   <energy>
    <i name="e_fr_energy">   -357.18454212 </i>
    <i name="e_wo_entrp">   -356.90157709 </i>
    <i name="e_0_energy">   -357.09022044 </i>
   </energy>
  </scstep>
  <scstep>
   <time name="dav">  407.43  407.94</time>
   <time name="total">  427.01  427.59</time>
   <energy>
    <i name="e_fr_energy">   -357.18453987 </i>
    <i name="e_wo_entrp">   -356.90157446 </i>
    <i name="e_0_energy">   -357.09021806 </i>
   </energy>
  </scstep>
  <scstep>
   <time name="dav">  275.83  276.18</time>
   <time name="total">  276.34  276.69</time>
   <energy>
    <i name="alphaZ">   8266.97428417 </i>
    <i name="ewald">-144746.13866056 </i>
    <i name="hartreedc"> -64913.25247730 </i>
    <i name="XCdc">   5598.65535934 </i>
    <i name="pawpsdc"> 170454.34030845 </i>
    <i name="pawaedc">-179471.28026800 </i>
    <i name="eentropy">     -0.28296613 </i>
    <i name="bandstr"> -19559.49155115 </i>
    <i name="atom"> 224013.29143063 </i>
    <i name="e_fr_energy">   -357.18454055 </i>
    <i name="e_wo_entrp">   -356.90157442 </i>
    <i name="e_0_energy">   -357.09021850 </i>
   </energy>
  </scstep>
  <structure>
   <crystal>
    <varray name="basis" >
     <v>       0.00000000       7.47300000       7.47300000 </v>
     <v>       7.47300000       0.00000000       7.47300000 </v>
     <v>       7.47300000       7.47300000       0.00000000 </v>
    </varray>
    <i name="volume">    834.67026563 </i>
    <varray name="rec_basis" >
     <v>      -0.06690753       0.06690753       0.06690753 </v>
     <v>       0.06690753      -0.06690753       0.06690753 </v>
     <v>       0.06690753       0.06690753      -0.06690753 </v>
    </varray>
   </crystal>
   <varray name="positions" >
    <v>      -0.00100361       0.00100361       0.00100361 </v>
    <v>       0.00000000       0.00000000       0.25000000 </v>
    <v>       0.00000000       0.00000000       0.50000000 </v>
    <v>       0.00000000       0.00000000       0.75000000 </v>
    <v>       0.00000000       0.25000000       0.00000000 </v>
    <v>       0.00000000       0.25000000       0.25000000 </v>
    <v>       0.00000000       0.25000000       0.50000000 </v>
    <v>       0.00000000       0.25000000       0.75000000 </v>
    <v>       0.00000000       0.50000000       0.00000000 </v>
    <v>       0.00000000       0.50000000       0.25000000 </v>
    <v>       0.00000000       0.50000000       0.50000000 </v>
    <v>       0.00000000       0.50000000       0.75000000 </v>
    <v>       0.00000000       0.75000000       0.00000000 </v>
    <v>       0.00000000       0.75000000       0.25000000 </v>
    <v>       0.00000000       0.75000000       0.50000000 </v>
    <v>       0.00000000       0.75000000       0.75000000 </v>
    <v>       0.25000000       0.00000000       0.00000000 </v>
    <v>       0.25000000       0.00000000       0.25000000 </v>
    <v>       0.25000000       0.00000000       0.50000000 </v>
    <v>       0.25000000       0.00000000       0.75000000 </v>
    <v>       0.25000000       0.25000000       0.00000000 </v>
    <v>       0.25000000       0.25000000       0.25000000 </v>
    <v>       0.25000000       0.25000000       0.50000000 </v>
    <v>       0.25000000       0.25000000       0.75000000 </v>
    <v>       0.25000000       0.50000000       0.00000000 </v>
    <v>       0.25000000       0.50000000       0.25000000 </v>
    <v>       0.25000000       0.50000000       0.50000000 </v>
    <v>       0.25000000       0.50000000       0.75000000 </v>
    <v>       0.25000000       0.75000000       0.00000000 </v>
    <v>       0.25000000       0.75000000       0.25000000 </v>
    <v>       0.25000000       0.75000000       0.50000000 </v>
    <v>       0.25000000       0.75000000       0.75000000 </v>
    <v>       0.50000000       0.00000000       0.00000000 </v>
    <v>       0.50000000       0.00000000       0.25000000 </v>
    <v>       0.50000000       0.00000000       0.50000000 </v>
    <v>       0.50000000       0.00000000       0.75000000 </v>
    <v>       0.50000000       0.25000000       0.00000000 </v>
    <v>       0.50000000       0.25000000       0.25000000 </v>
    <v>       0.50000000       0.25000000       0.50000000 </v>
    <v>       0.50000000       0.25000000       0.75000000 </v>
    <v>       0.50000000       0.50000000       0.00000000 </v>
    <v>       0.50000000       0.50000000       0.25000000 </v>
    <v>       0.50000000       0.50000000       0.50000000 </v>
    <v>       0.50000000       0.50000000       0.75000000 </v>
    <v>       0.50000000       0.75000000       0.00000000 </v>
    <v>       0.50000000       0.75000000       0.25000000 </v>
    <v>       0.50000000       0.75000000       0.50000000 </v>
    <v>       0.50000000       0.75000000       0.75000000 </v>
    <v>       0.75000000       0.00000000       0.00000000 </v>
    <v>       0.75000000       0.00000000       0.25000000 </v>
    <v>       0.75000000       0.00000000       0.50000000 </v>
    <v>       0.75000000       0.00000000       0.75000000 </v>
    <v>       0.75000000       0.25000000       0.00000000 </v>
    <v>       0.75000000       0.25000000       0.25000000 </v>
    <v>       0.75000000       0.25000000       0.50000000 </v>
    <v>       0.75000000       0.25000000       0.75000000 </v>
    <v>       0.75000000       0.50000000       0.00000000 </v>
    <v>       0.75000000       0.50000000       0.25000000 </v>
    <v>       0.75000000       0.50000000       0.50000000 </v>
    <v>       0.75000000       0.50000000       0.75000000 </v>
    <v>       0.75000000       0.75000000       0.00000000 </v>
    <v>       0.75000000       0.75000000       0.25000000 </v>
    <v>       0.75000000       0.75000000       0.50000000 </v>
    <v>       0.75000000       0.75000000       0.75000000 </v>
   </varray>
  </structure>
  <varray name="forces" >
   <v>      -0.06217491       0.00000000      -0.00000000 </v>
   <v>       0.00617541       0.00612155      -0.00000000 </v>
   <v>       0.00009034      -0.00012958      -0.00000000 </v>
   <v>       0.00567072       0.00556122      -0.00000000 </v>
   <v>       0.00617541       0.00000000       0.00612155 </v>
   <v>       0.00098136       0.00052198       0.00052198 </v>
   <v>       0.00022410       0.00048057      -0.00023809 </v>
   <v>       0.00093602       0.00000034      -0.00000034 </v>
   <v>       0.00009034       0.00000000      -0.00012958 </v>
   <v>       0.00022410      -0.00023809       0.00048057 </v>
   <v>       0.00005682       0.00000000      -0.00000000 </v>
   <v>       0.00028071      -0.00027552       0.00053216 </v>
   <v>       0.00567072       0.00000000       0.00556122 </v>
   <v>       0.00093602      -0.00000034       0.00000034 </v>
   <v>       0.00028071       0.00053216      -0.00027552 </v>
   <v>       0.00091999       0.00047196       0.00047196 </v>
   <v>       0.00093602      -0.00000034      -0.00000034 </v>
   <v>       0.00028071       0.00053216       0.00027552 </v>
   <v>       0.00091999       0.00047196      -0.00047196 </v>
   <v>       0.00567072       0.00000000      -0.00556122 </v>
   <v>       0.00028071       0.00027552       0.00053216 </v>
   <v>       0.00008281       0.00000000      -0.00000000 </v>
   <v>       0.00022410       0.00023809      -0.00048057 </v>
   <v>      -0.00056019       0.00000000       0.00002865 </v>
   <v>       0.00091999      -0.00047196       0.00047196 </v>
   <v>       0.00022410      -0.00048057       0.00023809 </v>
   <v>      -0.00021794      -0.00002735      -0.00002735 </v>
   <v>      -0.00002077       0.00000000      -0.00013752 </v>
   <v>       0.00567072      -0.00556122      -0.00000000 </v>
   <v>      -0.00056019       0.00002865      -0.00000000 </v>
   <v>      -0.00002077      -0.00013752      -0.00000000 </v>
   <v>       0.00128537       0.00000000      -0.00000000 </v>
   <v>       0.00005682       0.00000000      -0.00000000 </v>
   <v>       0.00028071      -0.00027552      -0.00053216 </v>
   <v>       0.00009034       0.00000000       0.00012958 </v>
   <v>       0.00022410      -0.00023809      -0.00048057 </v>
   <v>       0.00028071      -0.00053216      -0.00027552 </v>
   <v>       0.00098136      -0.00052198      -0.00052198 </v>
   <v>      -0.00009456       0.00000000       0.00007481 </v>
   <v>      -0.00021794       0.00002735      -0.00002735 </v>
   <v>       0.00009034       0.00012958      -0.00000000 </v>
   <v>      -0.00009456       0.00007481      -0.00000000 </v>
   <v>      -0.00023580       0.00000000      -0.00000000 </v>
   <v>      -0.00002077       0.00013752      -0.00000000 </v>
   <v>       0.00022410      -0.00048057      -0.00023809 </v>
   <v>      -0.00021794      -0.00002735       0.00002735 </v>
   <v>      -0.00002077       0.00000000       0.00013752 </v>
   <v>       0.00091999      -0.00047196      -0.00047196 </v>
   <v>       0.00093602       0.00000034       0.00000034 </v>
   <v>       0.00617541       0.00000000      -0.00612155 </v>
   <v>       0.00098136       0.00052198      -0.00052198 </v>
   <v>       0.00022410       0.00048057       0.00023809 </v>
   <v>       0.00617541      -0.00612155      -0.00000000 </v>
   <v>       0.00128610       0.00000000      -0.00000000 </v>
   <v>      -0.00009456      -0.00007481      -0.00000000 </v>
   <v>      -0.00056019      -0.00002865      -0.00000000 </v>
   <v>       0.00098136      -0.00052198       0.00052198 </v>
   <v>      -0.00009456       0.00000000      -0.00007481 </v>
   <v>      -0.00021794       0.00002735       0.00002735 </v>
   <v>       0.00028071      -0.00053216       0.00027552 </v>
   <v>       0.00022410       0.00023809       0.00048057 </v>
   <v>      -0.00056019       0.00000000      -0.00002865 </v>
   <v>       0.00028071       0.00027552      -0.00053216 </v>
   <v>       0.00008281       0.00000000      -0.00000000 </v>
  </varray>
  <varray name="stress" >
   <v>    -352.42943456      -0.00000000       0.00000000 </v>
   <v>       0.00000000    -352.43344078      -0.00000000 </v>
   <v>       0.00000000      -0.00000000    -352.43344078 </v>
  </varray>
  <energy>
   <i name="e_fr_energy">   -357.18454055 </i>
   <i name="e_wo_entrp">   -357.09021850 </i>
   <i name="e_0_energy">     -0.28296613 </i>
  </energy>
  <kpoints>
   <generation param="Gamma">
    <v type="int" name="divisions">       5        5        5 </v>
    <v name="usershift">      0.00000000       0.00000000       0.00000000 </v>
    <v name="genvec1">      0.20000000       0.00000000       0.00000000 </v>
    <v name="genvec2">      0.00000000       0.20000000       0.00000000 </v>
    <v name="genvec3">      0.00000000       0.00000000       0.20000000 </v>
    <v name="shift">      0.00000000       0.00000000       0.00000000 </v>
   </generation>
   <varray name="kpointlist" >
    <v>       0.00000000       0.00000000       0.00000000 </v>
    <v>       0.20000000       0.00000000       0.00000000 </v>
    <v>       0.40000000       0.00000000       0.00000000 </v>
    <v>       0.20000000       0.20000000       0.00000000 </v>
    <v>       0.40000000       0.20000000       0.00000000 </v>
    <v>      -0.40000000       0.20000000       0.00000000 </v>
    <v>      -0.20000000       0.20000000       0.00000000 </v>
    <v>       0.40000000       0.40000000       0.00000000 </v>
    <v>      -0.40000000       0.40000000       0.00000000 </v>
    <v>       0.00000000       0.20000000       0.20000000 </v>
    <v>       0.40000000       0.20000000       0.20000000 </v>
    <v>      -0.40000000       0.20000000       0.20000000 </v>
    <v>      -0.20000000       0.20000000       0.20000000 </v>
    <v>      -0.40000000       0.40000000       0.20000000 </v>
    <v>      -0.20000000       0.40000000       0.20000000 </v>
    <v>       0.40000000      -0.40000000       0.20000000 </v>
    <v>       0.00000000       0.40000000       0.40000000 </v>
    <v>      -0.20000000       0.40000000       0.40000000 </v>
   </varray>
   <varray name="weights" >
    <v>       0.00800000 </v>
    <v>       0.06400000 </v>
    <v>       0.06400000 </v>
    <v>       0.03200000 </v>
    <v>       0.12800000 </v>
    <v>       0.12800000 </v>
    <v>       0.06400000 </v>
    <v>       0.03200000 </v>
    <v>       0.06400000 </v>
    <v>       0.01600000 </v>
    <v>       0.03200000 </v>
    <v>       0.06400000 </v>
    <v>       0.06400000 </v>
    <v>       0.06400000 </v>
    <v>       0.06400000 </v>
    <v>       0.06400000 </v>
    <v>       0.01600000 </v>
    <v>       0.03200000 </v>
   </varray>
  </kpoints>
  <time name="totalsc"> 7270.07 7297.82</time>
 </calculation>
 <calculation>
  <scstep>
   <time name="dav">  535.45  536.26</time>
   <time name="total">  555.06  555.90</time>
   <energy>
    <i name="alphaZ">   8266.97428417 </i>
    <i name="ewald">-144746.13866056 </i>
    <i name="hartreedc"> -64913.29341504 </i>
    <i name="XCdc">   5598.65755336 </i>
    <i name="pawpsdc"> 170454.33752421 </i>
    <i name="pawaedc">-179471.27744954 </i>
    <i name="eentropy">     -0.28288420 </i>
    <i name="bandstr"> -19559.18813848 </i>
    <i name="atom"> 224013.29143063 </i>
    <i name="e_fr_energy">   -356.91975546 </i>
    <i name="e_wo_entrp">   -356.63687127 </i>
    <i name="e_0_energy">   -356.82546073 </i>
   </energy>
  </scstep>
  <scstep>
   <time name="dav">  434.47  434.78</time>
   <time name="total">  454.07  454.38</time>
   <energy>
    <i name="e_fr_energy">   -357.20211630 </i>
    <i name="e_wo_entrp">   -356.92070728 </i>
    <i name="e_0_energy">   -357.10831329 </i>
   </energy>
  </scstep>
  <scstep>
   <time name="dav">  486.15  486.79</time>
   <time name="total">  505.79  506.45</time>
   <energy>
    <i name="e_fr_energy">   -357.18765159 </i>
    <i name="e_wo_entrp">   -356.90473739 </i>
    <i name="e_0_energy">   -357.09334685 </i>
   </energy>
  </scstep>
  <scstep>
   <time name="dav">  513.52  519.47</time>
   <time name="total">  533.19  539.19</time>
   <energy>
    <i name="e_fr_energy">   -357.19621173 </i>
    <i name="e_wo_entrp">   -356.91393862 </i>
    <i name="e_0_energy">   -357.10212069 </i>
   </energy>
  </scstep>
  <scstep>
   <time name="dav">  451.88  452.32</time>
   <time name="total">  471.57  472.00</time>
   <energy>
    <i name="e_fr_energy">   -357.18523086 </i>
    <i name="e_wo_entrp">   -356.90225749 </i>
    <i name="e_0_energy">   -357.09090640 </i>
   </energy>
  </scstep>
  <scstep>
   <time name="dav">  518.33  518.75</time>
   <time name="total">  538.01  538.41</time>
   <energy>
    <i name="e_fr_energy">   -357.18496847 </i>
    <i name="e_wo_entrp">   -356.90198232 </i>
    <i name="e_0_energy">   -357.09063975 </i>
   </energy>
  </scstep>
  <scstep>
   <time name="dav">  469.25  473.95</time>
   <time name="total">  488.77  493.53</time>
   <energy>
    <i name="e_fr_energy">   -357.18493068 </i>
    <i name="e_wo_entrp">   -356.90194919 </i>
    <i name="e_0_energy">   -357.09060352 </i>
   </energy>
  </scstep>
  <scstep>
   <time name="dav">  456.80  458.17</time>
   <time name="total">  476.40  477.76</time>
   <energy>
    <i name="e_fr_energy">   -357.18477142 </i>
    <i name="e_wo_entrp">   -356.90179388 </i>
    <i name="e_0_energy">   -357.09044557 </i>
   </energy>
  </scstep>
  <scstep>
   <time name="dav">  459.83  460.50</time>
   <time name="total">  479.44  480.16</time>
   <energy>
    <i name="e_fr_energy">   -357.18485488 </i>
    <i name="e_wo_entrp">   -356.90188398 </i>
    <i name="e_0_energy">   -357.09053125 </i>
   </energy>
  </scstep>
  <scstep>
   <time name="dav">  499.62  500.28</time>
   <time name="total">  519.13  519.87</time>
   <energy>
    <i name="e_fr_energy">   -357.18473431 </i>
    <i name="e_wo_entrp">   -356.90178442 </i>
    <i name="e_0_energy">   -357.09041768 </i>
   </energy>
  </scstep>
  <scstep>
   <time name="dav">  518.33  523.38</time>
   <time name="total">  537.84  542.96</time>
   <energy>
    <i name="e_fr_energy">   -357.18453546 </i>
    <i name="e_wo_entrp">   -356.90157172 </i>
    <i name="e_0_energy">   -357.09021422 </i>
   </energy>
  </scstep>
  <scstep>
   <time name="dav">  575.28  576.22</time>
   <time name="total">  594.82  595.82</time>
   <energy>
    <i name="e_fr_energy">   -357.18456257 </i>
    <i name="e_wo_entrp">   -356.90160072 </i>
    <i name="e_0_energy">   -357.09024195 </i>
   </energy>
  </scstep>
  <scstep>
   <time name="dav">  450.04  451.09</time>
   <time name="total">  469.60  470.70</time>
   <energy>
    <i name="e_fr_energy">   -357.18454036 </i>
    <i name="e_wo_entrp">   -356.90157483 </i>
    <i name="e_0_energy">   -357.09021851 </i>
   </energy>
  </scstep>
  <scstep>
   <time name="dav">  485.72  490.28</time>
   <time name="total">  505.30  509.88</time>
   <energy>
    <i name="e_fr_energy">   -357.18454356 </i>
    <i name="e_wo_entrp">   -356.90157893 </i>
    <i name="e_0_energy">   -357.09022202 </i>
   </energy>
  </scstep>
  <scstep>
   <time name="dav">  326.79  327.18</time>
   <time name="total">  346.33  346.77</time>
   <energy>
    <i name="e_fr_energy">   -357.18453996 </i>
    <i name="e_wo_entrp">   -356.90157266 </i>
    <i name="e_0_energy">   -357.09021752 </i>
   </energy>
  </scstep>
  <scstep>
   <time name="dav">  269.11  269.55</time>
   <time name="total">  269.62  270.06</time>
   <energy>
    <i name="alphaZ">   8266.97428417 </i>
    <i name="ewald">-144746.13866056 </i>
    <i name="hartreedc"> -64913.25077025 </i>
    <i name="XCdc">   5598.65531243 </i>
    <i name="pawpsdc"> 170454.32904277 </i>
    <i name="pawaedc">-179471.27048949 </i>
    <i name="eentropy">     -0.28296645 </i>
    <i name="bandstr"> -19559.49172364 </i>
    <i name="atom"> 224013.29143063 </i>
    <i name="e_fr_energy">   -357.18454039 </i>
    <i name="e_wo_entrp">   -356.90157394 </i>
    <i name="e_0_energy">   -357.09021824 </i>
   </energy>
  </scstep>
  <structure>
   <crystal>
    <varray name="basis" >
     <v>       0.00000000       7.47300000       7.47300000 </v>
     <v>       7.47300000       0.00000000       7.47300000 </v>
     <v>       7.47300000       7.47300000       0.00000000 </v>
    </varray>
    <i name="volume">    834.67026563 </i>
    <varray name="rec_basis" >
     <v>      -0.06690753       0.06690753       0.06690753 </v>
     <v>       0.06690753      -0.06690753       0.06690753 </v>
     <v>       0.06690753       0.06690753      -0.06690753 </v>
    </varray>
   </crystal>
   <varray name="positions" >
    <v>       0.00100361      -0.00100361      -0.00100361 </v>
    <v>       0.00000000       0.00000000       0.25000000 </v>
    <v>       0.00000000       0.00000000       0.50000000 </v>
    <v>       0.00000000       0.00000000       0.75000000 </v>
    <v>       0.00000000       0.25000000       0.00000000 </v>
    <v>       0.00000000       0.25000000       0.25000000 </v>
    <v>       0.00000000       0.25000000       0.50000000 </v>
    <v>       0.00000000       0.25000000       0.75000000 </v>
    <v>       0.00000000       0.50000000       0.00000000 </v>
    <v>       0.00000000       0.50000000       0.25000000 </v>
    <v>       0.00000000       0.50000000       0.50000000 </v>
    <v>       0.00000000       0.50000000       0.75000000 </v>
    <v>       0.00000000       0.75000000       0.00000000 </v>
    <v>       0.00000000       0.75000000       0.25000000 </v>
    <v>       0.00000000       0.75000000       0.50000000 </v>
    <v>       0.00000000       0.75000000       0.75000000 </v>
    <v>       0.25000000       0.00000000       0.00000000 </v>
    <v>       0.25000000       0.00000000       0.25000000 </v>
    <v>       0.25000000       0.00000000       0.50000000 </v>
    <v>       0.25000000       0.00000000       0.75000000 </v>
    <v>       0.25000000       0.25000000       0.00000000 </v>
    <v>       0.25000000       0.25000000       0.25000000 </v>
    <v>       0.25000000       0.25000000       0.50000000 </v>
    <v>       0.25000000       0.25000000       0.75000000 </v>
    <v>       0.25000000       0.50000000       0.00000000 </v>
    <v>       0.25000000       0.50000000       0.25000000 </v>
    <v>       0.25000000       0.50000000       0.50000000 </v>
    <v>       0.25000000       0.50000000       0.75000000 </v>
    <v>       0.25000000       0.75000000       0.00000000 </v>
    <v>       0.25000000       0.75000000       0.25000000 </v>
    <v>       0.25000000       0.75000000       0.50000000 </v>
    <v>       0.25000000       0.75000000       0.75000000 </v>
    <v>       0.50000000       0.00000000       0.00000000 </v>
    <v>       0.50000000       0.00000000       0.25000000 </v>
    <v>       0.50000000       0.00000000       0.50000000 </v>
    <v>       0.50000000       0.00000000       0.75000000 </v>
    <v>       0.50000000       0.25000000       0.00000000 </v>
    <v>       0.50000000       0.25000000       0.25000000 </v>
    <v>       0.50000000       0.25000000       0.50000000 </v>
    <v>       0.50000000       0.25000000       0.75000000 </v>
    <v>       0.50000000       0.50000000       0.00000000 </v>
    <v>       0.50000000       0.50000000       0.25000000 </v>
    <v>       0.50000000       0.50000000       0.50000000 </v>
    <v>       0.50000000       0.50000000       0.75000000 </v>
    <v>       0.50000000       0.75000000       0.00000000 </v>
    <v>       0.50000000       0.75000000       0.25000000 </v>
    <v>       0.50000000       0.75000000       0.50000000 </v>
    <v>       0.50000000       0.75000000       0.75000000 </v>
    <v>       0.75000000       0.00000000       0.00000000 </v>
    <v>       0.75000000       0.00000000       0.25000000 </v>
    <v>       0.75000000       0.00000000       0.50000000 </v>
    <v>       0.75000000       0.00000000       0.75000000 </v>
    <v>       0.75000000       0.25000000       0.00000000 </v>
    <v>       0.75000000       0.25000000       0.25000000 </v>
    <v>       0.75000000       0.25000000       0.50000000 </v>
    <v>       0.75000000       0.25000000       0.75000000 </v>
    <v>       0.75000000       0.50000000       0.00000000 </v>
    <v>       0.75000000       0.50000000       0.25000000 </v>
    <v>       0.75000000       0.50000000       0.50000000 </v>
    <v>       0.75000000       0.50000000       0.75000000 </v>
    <v>       0.75000000       0.75000000       0.00000000 </v>
    <v>       0.75000000       0.75000000       0.25000000 </v>
    <v>       0.75000000       0.75000000       0.50000000 </v>
    <v>       0.75000000       0.75000000       0.75000000 </v>
   </varray>
  </structure>
  <varray name="forces" >
   <v>       0.06313322      -0.00000000       0.00000000 </v>
   <v>      -0.00593666      -0.00598135       0.00000000 </v>
   <v>      -0.00012152       0.00011616       0.00000000 </v>
   <v>      -0.00645376      -0.00655276       0.00000000 </v>
   <v>      -0.00593666      -0.00000000      -0.00598135 </v>
   <v>      -0.00091575      -0.00045766      -0.00045766 </v>
   <v>      -0.00023281      -0.00052973       0.00026891 </v>
   <v>      -0.00077939      -0.00002831       0.00002831 </v>
   <v>      -0.00012152      -0.00000000       0.00011616 </v>
   <v>      -0.00023281       0.00026891      -0.00052973 </v>
   <v>      -0.00000445      -0.00000000       0.00000000 </v>
   <v>      -0.00022427       0.00023555      -0.00044928 </v>
   <v>      -0.00645376      -0.00000000      -0.00655276 </v>
   <v>      -0.00077939       0.00002831      -0.00002831 </v>
   <v>      -0.00022427      -0.00044928       0.00023555 </v>
   <v>      -0.00099464      -0.00049939      -0.00049939 </v>
   <v>      -0.00077939       0.00002831       0.00002831 </v>
   <v>      -0.00022427      -0.00044928      -0.00023555 </v>
   <v>      -0.00099464      -0.00049939       0.00049939 </v>
   <v>      -0.00645376      -0.00000000       0.00655276 </v>
   <v>      -0.00022427      -0.00023555      -0.00044928 </v>
   <v>      -0.00011983      -0.00000000       0.00000000 </v>
   <v>      -0.00023281      -0.00026891       0.00052973 </v>
   <v>       0.00060667      -0.00000000       0.00006445 </v>
   <v>      -0.00099464       0.00049939      -0.00049939 </v>
   <v>      -0.00023281       0.00052973      -0.00026891 </v>
   <v>       0.00028112      -0.00002697      -0.00002697 </v>
   <v>       0.00006373      -0.00000000       0.00007172 </v>
   <v>      -0.00645376       0.00655276       0.00000000 </v>
   <v>       0.00060667       0.00006445       0.00000000 </v>
   <v>       0.00006373       0.00007172       0.00000000 </v>
   <v>      -0.00136849      -0.00000000       0.00000000 </v>
   <v>      -0.00000445      -0.00000000       0.00000000 </v>
   <v>      -0.00022427       0.00023555       0.00044928 </v>
   <v>      -0.00012152      -0.00000000      -0.00011616 </v>
   <v>      -0.00023281       0.00026891       0.00052973 </v>
   <v>      -0.00022427       0.00044928       0.00023555 </v>
   <v>      -0.00091575       0.00045766       0.00045766 </v>
   <v>       0.00003887      -0.00000000      -0.00013005 </v>
   <v>       0.00028112       0.00002697      -0.00002697 </v>
   <v>      -0.00012152      -0.00011616       0.00000000 </v>
   <v>       0.00003887      -0.00013005       0.00000000 </v>
   <v>       0.00033726      -0.00000000       0.00000000 </v>
   <v>       0.00006373      -0.00007172       0.00000000 </v>
   <v>      -0.00023281       0.00052973       0.00026891 </v>
   <v>       0.00028112      -0.00002697       0.00002697 </v>
   <v>       0.00006373      -0.00000000      -0.00007172 </v>
   <v>      -0.00099464       0.00049939       0.00049939 </v>
   <v>      -0.00077939      -0.00002831      -0.00002831 </v>
   <v>      -0.00593666      -0.00000000       0.00598135 </v>
   <v>      -0.00091575      -0.00045766       0.00045766 </v>
   <v>      -0.00023281      -0.00052973      -0.00026891 </v>
   <v>      -0.00593666       0.00598135       0.00000000 </v>
   <v>      -0.00135146      -0.00000000       0.00000000 </v>
   <v>       0.00003887       0.00013005       0.00000000 </v>
   <v>       0.00060667      -0.00006445       0.00000000 </v>
   <v>      -0.00091575       0.00045766      -0.00045766 </v>
   <v>       0.00003887      -0.00000000       0.00013005 </v>
   <v>       0.00028112       0.00002697       0.00002697 </v>
   <v>      -0.00022427       0.00044928      -0.00023555 </v>
   <v>      -0.00023281      -0.00026891      -0.00052973 </v>
   <v>       0.00060667      -0.00000000      -0.00006445 </v>
   <v>      -0.00022427      -0.00023555       0.00044928 </v>
   <v>      -0.00011983      -0.00000000       0.00000000 </v>
  </varray>
  <varray name="stress" >
   <v>    -352.43272279       0.00000000       0.00000000 </v>
   <v>      -0.00000000    -352.43480405      -0.00000000 </v>
   <v>       0.00000000      -0.00000000    -352.43480405 </v>
  </varray>
  <energy>
   <i name="e_fr_energy">   -357.18454039 </i>
   <i name="e_wo_entrp">   -357.09021824 </i>
   <i name="e_0_energy">     -0.28296645 </i>
  </energy>
  <dynmat>
   <varray name="hessian" >
    <v>      -0.07116949       0.00000000       0.00000000       0.00688265       0.00687706       0.00000000       0.00012033      -0.00013957       0.00000000       0.00688265       0.00687706       0.00000000       0.00688265       0.00000000       0.00687706       0.00108245       0.00055982       0.00055982       0.00027315       0.00055982      -0.00028911       0.00097428       0.00000000       0.00000000       0.00012033      -0.00000000      -0.00013957       0.00027315      -0.00028911       0.00055982       0.00003480       0.00000000       0.00000000       0.00027315      -0.00028911       0.00055982       0.00688265      -0.00000000       0.00687706       0.00097428       0.00000000       0.00000000       0.00027315       0.00055982      -0.00028911       0.00108245       0.00055982       0.00055982       0.00097428       0.00000000      -0.00000000       0.00027315       0.00055982       0.00028911       0.00108245       0.00055982      -0.00055982       0.00688265       0.00000000      -0.00687706       0.00027315       0.00028911       0.00055982       0.00011509      -0.00000000      -0.00000000       0.00027315       0.00028911      -0.00055982      -0.00066272       0.00000000       0.00000000       0.00108245      -0.00055982       0.00055982       0.00027315      -0.00055982       0.00028911      -0.00028344      -0.00000000       0.00000000      -0.00006189       0.00000000      -0.00011760       0.00688265      -0.00687706       0.00000000      -0.00066272       0.00000000       0.00000000      -0.00006189      -0.00011760      -0.00000000       0.00150265       0.00000000       0.00000000       0.00003480      -0.00000000       0.00000000       0.00027315      -0.00028911      -0.00055982       0.00012033       0.00000000       0.00013957       0.00027315      -0.00028911      -0.00055982       0.00027315      -0.00055982      -0.00028911       0.00108245      -0.00055982      -0.00055982      -0.00006189       0.00000000       0.00011760      -0.00028344      -0.00000000       0.00000000       0.00012033       0.00013957       0.00000000      -0.00006189       0.00011760      -0.00000000      -0.00032547       0.00000000       0.00000000      -0.00006189       0.00011760      -0.00000000       0.00027315      -0.00055982      -0.00028911      -0.00028344      -0.00000000       0.00000000      -0.00006189       0.00000000       0.00011760       0.00108245      -0.00055982      -0.00055982       0.00097428       0.00000000       0.00000000       0.00688265       0.00000000      -0.00687706       0.00108245       0.00055982      -0.00055982       0.00027315       0.00055982       0.00028911       0.00688265      -0.00687706       0.00000000       0.00150265       0.00000000      -0.00000000      -0.00006189      -0.00011760      -0.00000000      -0.00066272      -0.00000000       0.00000000       0.00108245      -0.00055982       0.00055982      -0.00006189       0.00000000      -0.00011760      -0.00028344      -0.00000000       0.00000000       0.00027315      -0.00055982       0.00028911       0.00027315       0.00028911       0.00055982      -0.00066272       0.00000000       0.00000000       0.00027315       0.00028911      -0.00055982       0.00011509      -0.00000000      -0.00000000 </v>
    <v>       0.00000000      -0.07116949       0.00000000       0.00687706       0.00688265       0.00000000      -0.00013957       0.00012033       0.00000000       0.00687706       0.00688265      -0.00000000      -0.00000000       0.00097428       0.00000000       0.00055982       0.00027315       0.00028911       0.00055982       0.00108245      -0.00055982       0.00000000       0.00688265      -0.00687706      -0.00000000       0.00003480       0.00000000      -0.00028911       0.00027315      -0.00055982       0.00000000       0.00012033       0.00013957      -0.00028911       0.00027315      -0.00055982       0.00000000       0.00097428       0.00000000       0.00000000       0.00688265      -0.00687706       0.00055982       0.00108245      -0.00055982       0.00055982       0.00027315       0.00028911       0.00000000       0.00688265       0.00687706       0.00055982       0.00108245       0.00055982       0.00055982       0.00027315      -0.00028911       0.00000000       0.00097428       0.00000000       0.00028911       0.00027315       0.00055982      -0.00000000       0.00011509      -0.00000000       0.00028911       0.00027315      -0.00055982       0.00000000      -0.00066272       0.00000000      -0.00055982       0.00027315      -0.00028911      -0.00055982       0.00108245      -0.00055982      -0.00000000      -0.00006189       0.00011760       0.00000000      -0.00028344      -0.00000000      -0.00687706       0.00688265       0.00000000      -0.00000000       0.00150265       0.00000000      -0.00011760      -0.00006189       0.00000000       0.00000000      -0.00066272       0.00000000      -0.00000000       0.00012033      -0.00013957      -0.00028911       0.00027315       0.00055982       0.00000000       0.00003480       0.00000000      -0.00028911       0.00027315       0.00055982      -0.00055982       0.00108245       0.00055982      -0.00055982       0.00027315       0.00028911       0.00000000      -0.00028344      -0.00000000      -0.00000000      -0.00006189      -0.00011760       0.00013957       0.00012033       0.00000000       0.00011760      -0.00006189       0.00000000       0.00000000      -0.00032547       0.00000000       0.00011760      -0.00006189       0.00000000      -0.00055982       0.00108245       0.00055982      -0.00000000      -0.00006189      -0.00011760       0.00000000      -0.00028344      -0.00000000      -0.00055982       0.00027315       0.00028911       0.00000000       0.00688265       0.00687706       0.00000000       0.00097428       0.00000000       0.00055982       0.00027315      -0.00028911       0.00055982       0.00108245       0.00055982      -0.00687706       0.00688265       0.00000000       0.00000000      -0.00066272       0.00000000      -0.00011760      -0.00006189       0.00000000       0.00000000       0.00150265       0.00000000      -0.00055982       0.00027315      -0.00028911       0.00000000      -0.00028344      -0.00000000      -0.00000000      -0.00006189       0.00011760      -0.00055982       0.00108245      -0.00055982       0.00028911       0.00027315       0.00055982       0.00000000      -0.00066272      -0.00000000       0.00028911       0.00027315      -0.00055982      -0.00000000       0.00011509      -0.00000000 </v>
[...]
       <r>    19.7043     0.0000   648.0000 </r>
       <r>    19.9833     0.0000   648.0000 </r>
       <r>    20.2622     0.0000   648.0000 </r>
       <r>    20.5412     0.0000   648.0000 </r>
       <r>    20.8201     0.0000   648.0000 </r>
       <r>    21.0991     0.0000   648.0000 </r>
       <r>    21.3780     0.0000   648.0000 </r>
       <r>    21.6570     0.0000   648.0000 </r>
       <r>    21.9359     0.0000   648.0000 </r>
      </set>
      <set comment="spin 2">
       <r>   -61.7503     0.0000     0.0000 </r>
       <r>   -61.4714     0.0000     0.0000 </r>
       <r>   -61.1924     0.0000     0.0000 </r>
       <r>   -60.9135     0.0000     0.0000 </r>
       <r>   -60.6345     0.0000     0.0000 </r>
       <r>   -60.3556     0.0000     0.0000 </r>
       <r>   -60.0766     0.0000     0.0000 </r>
       <r>   -59.7976     0.0000     0.0000 </r>
       <r>   -59.5187     0.0000     0.0000 </r>
       <r>   -59.2397     0.0000     0.0000 </r>
       <r>   -58.9608     0.0000     0.0000 </r>
       <r>   -58.6818    -0.0000    -0.0000 </r>
       <r>   -58.4029    -0.0000    -0.0000 </r>
       <r>   -58.1239    -0.0000    -0.0000 </r>
       <r>   -57.8450    -0.0000    -0.0000 </r>
       <r>   -57.5660    -0.2350    -0.0656 </r>
       <r>   -57.2871   -19.9191    -5.6221 </r>
       <r>   -57.0081   348.2470    91.5229 </r>
       <r>   -56.7291   381.5606   197.9608 </r>
       <r>   -56.4502   -21.0706   192.0831 </r>
       <r>   -56.1712    -0.2977   192.0000 </r>
       <r>   -55.8923    -0.0000   192.0000 </r>
       <r>   -55.6133    -0.0000   192.0000 </r>
       <r>   -55.3344     0.0000   192.0000 </r>
       <r>   -55.0554     0.0000   192.0000 </r>
       <r>   -54.7765     0.0000   192.0000 </r>
       <r>   -54.4975     0.0000   192.0000 </r>
       <r>   -54.2186     0.0000   192.0000 </r>
       <r>   -53.9396     0.0000   192.0000 </r>
       <r>   -53.6607     0.0000   192.0000 </r>
       <r>   -53.3817     0.0000   192.0000 </r>
       <r>   -53.1027     0.0000   192.0000 </r>
       <r>   -52.8238     0.0000   192.0000 </r>
       <r>   -52.5448     0.0000   192.0000 </r>
       <r>   -52.2659     0.0000   192.0000 </r>
       <r>   -51.9869     0.0000   192.0000 </r>
       <r>   -51.7080     0.0000   192.0000 </r>
       <r>   -51.4290     0.0000   192.0000 </r>
       <r>   -51.1501     0.0000   192.0000 </r>
       <r>   -50.8711     0.0000   192.0000 </r>
       <r>   -50.5922     0.0000   192.0000 </r>
       <r>   -50.3132     0.0000   192.0000 </r>
       <r>   -50.0342     0.0000   192.0000 </r>
       <r>   -49.7553     0.0000   192.0000 </r>
       <r>   -49.4763     0.0000   192.0000 </r>
       <r>   -49.1974     0.0000   192.0000 </r>
       <r>   -48.9184     0.0000   192.0000 </r>
       <r>   -48.6395     0.0000   192.0000 </r>
       <r>   -48.3605     0.0000   192.0000 </r>
       <r>   -48.0816     0.0000   192.0000 </r>
       <r>   -47.8026     0.0000   192.0000 </r>
       <r>   -47.5237     0.0000   192.0000 </r>
       <r>   -47.2447     0.0000   192.0000 </r>
       <r>   -46.9658     0.0000   192.0000 </r>
       <r>   -46.6868     0.0000   192.0000 </r>
       <r>   -46.4078     0.0000   192.0000 </r>
       <r>   -46.1289     0.0000   192.0000 </r>
       <r>   -45.8499     0.0000   192.0000 </r>
       <r>   -45.5710     0.0000   192.0000 </r>
       <r>   -45.2920     0.0000   192.0000 </r>
       <r>   -45.0131     0.0000   192.0000 </r>
       <r>   -44.7341     0.0000   192.0000 </r>
       <r>   -44.4552     0.0000   192.0000 </r>
       <r>   -44.1762     0.0000   192.0000 </r>
       <r>   -43.8973     0.0000   192.0000 </r>
       <r>   -43.6183     0.0000   192.0000 </r>
       <r>   -43.3393     0.0000   192.0000 </r>
       <r>   -43.0604     0.0000   192.0000 </r>
       <r>   -42.7814     0.0000   192.0000 </r>
       <r>   -42.5025     0.0000   192.0000 </r>
       <r>   -42.2235     0.0000   192.0000 </r>
       <r>   -41.9446     0.0000   192.0000 </r>
       <r>   -41.6656     0.0000   192.0000 </r>
       <r>   -41.3867     0.0000   192.0000 </r>
       <r>   -41.1077     0.0000   192.0000 </r>
       <r>   -40.8288     0.0000   192.0000 </r>
       <r>   -40.5498     0.0000   192.0000 </r>
       <r>   -40.2709     0.0000   192.0000 </r>
       <r>   -39.9919     0.0000   192.0000 </r>
       <r>   -39.7129     0.0000   192.0000 </r>
       <r>   -39.4340     0.0000   192.0000 </r>
       <r>   -39.1550     0.0000   192.0000 </r>
       <r>   -38.8761     0.0000   192.0000 </r>
       <r>   -38.5971     0.0000   192.0000 </r>
       <r>   -38.3182     0.0000   192.0000 </r>
       <r>   -38.0392     0.0000   192.0000 </r>
       <r>   -37.7603     0.0000   192.0000 </r>
       <r>   -37.4813     0.0000   192.0000 </r>
       <r>   -37.2024     0.0000   192.0000 </r>
       <r>   -36.9234     0.0000   192.0000 </r>
       <r>   -36.6444     0.0000   192.0000 </r>
       <r>   -36.3655     0.0000   192.0000 </r>
       <r>   -36.0865     0.0000   192.0000 </r>
       <r>   -35.8076     0.0000   192.0000 </r>
       <r>   -35.5286     0.0000   192.0000 </r>
       <r>   -35.2497     0.0000   192.0000 </r>
       <r>   -34.9707     0.0000   192.0000 </r>
       <r>   -34.6918     0.0000   192.0000 </r>
       <r>   -34.4128     0.0000   192.0000 </r>
       <r>   -34.1339     0.0000   192.0000 </r>
       <r>   -33.8549     0.0000   192.0000 </r>
       <r>   -33.5760     0.0000   192.0000 </r>
       <r>   -33.2970     0.0000   192.0000 </r>
       <r>   -33.0180     0.0000   192.0000 </r>
       <r>   -32.7391     0.0000   192.0000 </r>
       <r>   -32.4601     0.0000   192.0000 </r>
       <r>   -32.1812     0.0000   192.0000 </r>
       <r>   -31.9022     0.0000   192.0000 </r>
       <r>   -31.6233     0.0000   192.0000 </r>
       <r>   -31.3443     0.0000   192.0000 </r>
       <r>   -31.0654     0.0000   192.0000 </r>
       <r>   -30.7864     0.0000   192.0000 </r>
       <r>   -30.5075     0.0000   192.0000 </r>
       <r>   -30.2285     0.0000   192.0000 </r>
       <r>   -29.9495     0.0000   192.0000 </r>
       <r>   -29.6706     0.0000   192.0000 </r>
       <r>   -29.3916     0.0000   192.0000 </r>
       <r>   -29.1127     0.0000   192.0000 </r>
       <r>   -28.8337     0.0000   192.0000 </r>
       <r>   -28.5548     0.0000   192.0000 </r>
       <r>   -28.2758     0.0000   192.0000 </r>
       <r>   -27.9969     0.0000   192.0000 </r>
       <r>   -27.7179     0.0000   192.0000 </r>
       <r>   -27.4390     0.0000   192.0000 </r>
       <r>   -27.1600     0.0000   192.0000 </r>
       <r>   -26.8811     0.0000   192.0000 </r>
       <r>   -26.6021     0.0000   192.0000 </r>
       <r>   -26.3231     0.0000   192.0000 </r>
       <r>   -26.0442     0.0000   192.0000 </r>
       <r>   -25.7652     0.0000   192.0000 </r>
       <r>   -25.4863     0.0000   192.0000 </r>
       <r>   -25.2073     0.0000   192.0000 </r>
       <r>   -24.9284     0.0000   192.0000 </r>
       <r>   -24.6494     0.0000   192.0000 </r>
       <r>   -24.3705     0.0000   192.0000 </r>
       <r>   -24.0915     0.0000   192.0000 </r>
       <r>   -23.8126     0.0000   192.0000 </r>
       <r>   -23.5336     0.0000   192.0000 </r>
       <r>   -23.2546     0.0000   192.0000 </r>
       <r>   -22.9757     0.0000   192.0000 </r>
       <r>   -22.6967     0.0000   192.0000 </r>
       <r>   -22.4178     0.0000   192.0000 </r>
       <r>   -22.1388     0.0000   192.0000 </r>
       <r>   -21.8599     0.0000   192.0000 </r>
       <r>   -21.5809     0.0000   192.0000 </r>
       <r>   -21.3020     0.0000   192.0000 </r>
       <r>   -21.0230     0.0000   192.0000 </r>
       <r>   -20.7441     0.0000   192.0000 </r>
       <r>   -20.4651     0.0000   192.0000 </r>
       <r>   -20.1862     0.0000   192.0000 </r>
       <r>   -19.9072     0.0000   192.0000 </r>
       <r>   -19.6282     0.0000   192.0000 </r>
       <r>   -19.3493     0.0000   192.0000 </r>
       <r>   -19.0703     0.0000   192.0000 </r>
       <r>   -18.7914     0.0000   192.0000 </r>
       <r>   -18.5124     0.0000   192.0000 </r>
       <r>   -18.2335     0.0000   192.0000 </r>
       <r>   -17.9545     0.0000   192.0000 </r>
       <r>   -17.6756     0.0000   192.0000 </r>
       <r>   -17.3966     0.0000   192.0000 </r>
       <r>   -17.1177     0.0000   192.0000 </r>
       <r>   -16.8387     0.0000   192.0000 </r>
       <r>   -16.5597     0.0000   192.0000 </r>
       <r>   -16.2808     0.0000   192.0000 </r>
       <r>   -16.0018     0.0000   192.0000 </r>
       <r>   -15.7229     0.0000   192.0000 </r>
       <r>   -15.4439     0.0000   192.0000 </r>
       <r>   -15.1650     0.0000   192.0000 </r>
       <r>   -14.8860     0.0000   192.0000 </r>
       <r>   -14.6071     0.0000   192.0000 </r>
       <r>   -14.3281     0.0000   192.0000 </r>
       <r>   -14.0492     0.0000   192.0000 </r>
       <r>   -13.7702     0.0000   192.0000 </r>
       <r>   -13.4913     0.0000   192.0000 </r>
       <r>   -13.2123     0.0000   192.0000 </r>
       <r>   -12.9333     0.0000   192.0000 </r>
       <r>   -12.6544     0.0000   192.0000 </r>
       <r>   -12.3754     0.0000   192.0000 </r>
       <r>   -12.0965     0.0000   192.0000 </r>
       <r>   -11.8175     0.0000   192.0000 </r>
       <r>   -11.5386     0.0000   192.0000 </r>
       <r>   -11.2596     0.0000   192.0000 </r>
       <r>   -10.9807     0.0000   192.0000 </r>
       <r>   -10.7017     0.0000   192.0000 </r>
       <r>   -10.4228     0.0000   192.0000 </r>
       <r>   -10.1438     0.0000   192.0000 </r>
       <r>    -9.8648     0.0000   192.0000 </r>
       <r>    -9.5859     0.0000   192.0000 </r>
       <r>    -9.3069     0.0000   192.0000 </r>
       <r>    -9.0280     0.0000   192.0000 </r>
       <r>    -8.7490     0.0000   192.0000 </r>
       <r>    -8.4701     0.0000   192.0000 </r>
       <r>    -8.1911     0.0000   192.0000 </r>
       <r>    -7.9122     0.0000   192.0000 </r>
       <r>    -7.6332     0.0000   192.0000 </r>
       <r>    -7.3543     0.0000   192.0000 </r>
       <r>    -7.0753     0.0000   192.0000 </r>
       <r>    -6.7963     0.0000   192.0000 </r>
       <r>    -6.5174     0.0000   192.0000 </r>
       <r>    -6.2384     0.0000   192.0000 </r>
       <r>    -5.9595     0.0000   192.0000 </r>
       <r>    -5.6805     0.0000   192.0000 </r>
       <r>    -5.4016     0.0000   192.0000 </r>
       <r>    -5.1226     0.0000   192.0000 </r>
       <r>    -4.8437     0.0000   192.0000 </r>
       <r>    -4.5647     0.0000   192.0000 </r>
       <r>    -4.2858     0.0000   192.0000 </r>
       <r>    -4.0068     0.0000   192.0000 </r>
       <r>    -3.7279    -0.0000   192.0000 </r>
       <r>    -3.4489    -0.0000   192.0000 </r>
       <r>    -3.1699    -0.0000   192.0000 </r>
       <r>    -2.8910    -0.0000   192.0000 </r>
       <r>    -2.6120    -0.0001   192.0000 </r>
       <r>    -2.3331    -0.0120   191.9966 </r>
       <r>    -2.0541     0.1359   192.0345 </r>
       <r>    -1.7752     1.1162   192.3459 </r>
       <r>    -1.4962     1.8712   192.8679 </r>
       <r>    -1.2173     2.1904   193.4789 </r>
       <r>    -0.9383     3.0951   194.3423 </r>
       <r>    -0.6594     2.9477   195.1646 </r>
       <r>    -0.3804     3.9966   196.2794 </r>
       <r>    -0.1014     3.7700   197.3311 </r>
       <r>     0.1775     5.2179   198.7866 </r>
       <r>     0.4565     4.1152   199.9346 </r>
       <r>     0.7354     6.5802   201.7702 </r>
       <r>     1.0144     5.7895   203.3852 </r>
       <r>     1.2933     7.2635   205.4113 </r>
       <r>     1.5723     8.7814   207.8609 </r>
       <r>     1.8512     8.6983   210.2874 </r>
       <r>     2.1302    14.4675   214.3231 </r>
       <r>     2.4091    19.3003   219.7070 </r>
       <r>     2.6881    32.9970   228.9117 </r>
       <r>     2.9670    35.1521   238.7175 </r>
       <r>     3.2460    49.4662   252.5163 </r>
       <r>     3.5250    67.6992   271.4013 </r>
       <r>     3.8039    64.5770   289.4153 </r>
       <r>     4.0829    76.2818   310.6944 </r>
       <r>     4.3618   100.7040   338.7862 </r>
       <r>     4.6408   116.0747   371.1658 </r>
       <r>     4.9197   104.4925   400.3144 </r>
       <r>     5.1987    91.8249   425.9293 </r>
       <r>     5.4776   105.2092   455.2779 </r>
       <r>     5.7566    97.5373   482.4863 </r>
       <r>     6.0355   134.5150   520.0098 </r>
       <r>     6.3145    46.1591   532.8861 </r>
       <r>     6.5935    12.2235   536.2959 </r>
       <r>     6.8724    12.7736   539.8592 </r>
       <r>     7.1514    14.1960   543.8192 </r>
       <r>     7.4303     9.4949   546.4678 </r>
       <r>     7.7093    11.3986   549.6475 </r>
       <r>     7.9882    11.4170   552.8323 </r>
       <r>     8.2672     9.0838   555.3663 </r>
       <r>     8.5461     8.0761   557.6192 </r>
       <r>     8.8251    12.2509   561.0366 </r>
       <r>     9.1040     6.8403   562.9447 </r>
       <r>     9.3830     6.2786   564.6962 </r>
       <r>     9.6619     8.0423   566.9396 </r>
       <r>     9.9409     7.7104   569.0905 </r>
       <r>    10.2199     4.9228   570.4637 </r>
       <r>    10.4988     4.0309   571.5882 </r>
       <r>    10.7778     6.7515   573.4715 </r>
       <r>    11.0567    10.3663   576.3632 </r>
       <r>    11.3357     9.5913   579.0388 </r>
       <r>    11.6146    11.2614   582.1802 </r>
       <r>    11.8936    11.1339   585.2861 </r>
       <r>    12.1725     8.9248   587.7757 </r>
       <r>    12.4515     8.5244   590.1536 </r>
       <r>    12.7304     8.4336   592.5062 </r>
       <r>    13.0094    11.2324   595.6395 </r>
       <r>    13.2884     6.8267   597.5438 </r>
       <r>    13.5673     7.2222   599.5585 </r>
       <r>    13.8463     6.8323   601.4644 </r>
       <r>    14.1252    12.4097   604.9261 </r>
       <r>    14.4042    11.4309   608.1149 </r>
       <r>    14.6831    13.3415   611.8365 </r>
       <r>    14.9621    11.1191   614.9382 </r>
       <r>    15.2410    11.5352   618.1560 </r>
       <r>    15.5200    10.8644   621.1867 </r>
       <r>    15.7989    15.3850   625.4784 </r>
       <r>    16.0779    14.3416   629.4790 </r>
       <r>    16.3568    10.0915   632.2941 </r>
       <r>    16.6358    12.7968   635.8638 </r>
       <r>    16.9148    12.0456   639.2240 </r>
       <r>    17.1937    14.7759   643.3458 </r>
       <r>    17.4727     8.7794   645.7948 </r>
       <r>    17.7516     7.5205   647.8927 </r>
       <r>    18.0306    -0.0422   647.8810 </r>
       <r>    18.3095     0.4318   648.0014 </r>
       <r>    18.5885    -0.0036   648.0004 </r>
       <r>    18.8674    -0.0015   648.0000 </r>
       <r>    19.1464    -0.0000   648.0000 </r>
       <r>    19.4253    -0.0000   648.0000 </r>
       <r>    19.7043     0.0000   648.0000 </r>
       <r>    19.9833     0.0000   648.0000 </r>
       <r>    20.2622     0.0000   648.0000 </r>
       <r>    20.5412     0.0000   648.0000 </r>
       <r>    20.8201     0.0000   648.0000 </r>
       <r>    21.0991     0.0000   648.0000 </r>
       <r>    21.3780     0.0000   648.0000 </r>
       <r>    21.6570     0.0000   648.0000 </r>
       <r>    21.9359     0.0000   648.0000 </r>
      </set>
     </set>
    </array>
   </total>
  </dos>
 </calculation>
 <structure name="finalpos" >
  <crystal>
   <varray name="basis" >
    <v>       0.00000000       7.47300000       7.47300000 </v>
    <v>       7.47300000       0.00000000       7.47300000 </v>
    <v>       7.47300000       7.47300000       0.00000000 </v>
   </varray>
   <i name="volume">    834.67026563 </i>
   <varray name="rec_basis" >
    <v>      -0.06690753       0.06690753       0.06690753 </v>
    <v>       0.06690753      -0.06690753       0.06690753 </v>
    <v>       0.06690753       0.06690753      -0.06690753 </v>
   </varray>
  </crystal>
  <varray name="positions" >
   <v>       0.00100361      -0.00100361      -0.00100361 </v>
   <v>       0.00000000       0.00000000       0.25000000 </v>
   <v>       0.00000000       0.00000000       0.50000000 </v>
   <v>       0.00000000       0.00000000       0.75000000 </v>
   <v>       0.00000000       0.25000000       0.00000000 </v>
   <v>       0.00000000       0.25000000       0.25000000 </v>
   <v>       0.00000000       0.25000000       0.50000000 </v>
   <v>       0.00000000       0.25000000       0.75000000 </v>
   <v>       0.00000000       0.50000000       0.00000000 </v>
   <v>       0.00000000       0.50000000       0.25000000 </v>
   <v>       0.00000000       0.50000000       0.50000000 </v>
   <v>       0.00000000       0.50000000       0.75000000 </v>
   <v>       0.00000000       0.75000000       0.00000000 </v>
   <v>       0.00000000       0.75000000       0.25000000 </v>
   <v>       0.00000000       0.75000000       0.50000000 </v>
   <v>       0.00000000       0.75000000       0.75000000 </v>
   <v>       0.25000000       0.00000000       0.00000000 </v>
   <v>       0.25000000       0.00000000       0.25000000 </v>
   <v>       0.25000000       0.00000000       0.50000000 </v>
   <v>       0.25000000       0.00000000       0.75000000 </v>
   <v>       0.25000000       0.25000000       0.00000000 </v>
   <v>       0.25000000       0.25000000       0.25000000 </v>
   <v>       0.25000000       0.25000000       0.50000000 </v>
   <v>       0.25000000       0.25000000       0.75000000 </v>
   <v>       0.25000000       0.50000000       0.00000000 </v>
   <v>       0.25000000       0.50000000       0.25000000 </v>
   <v>       0.25000000       0.50000000       0.50000000 </v>
   <v>       0.25000000       0.50000000       0.75000000 </v>
   <v>       0.25000000       0.75000000       0.00000000 </v>
   <v>       0.25000000       0.75000000       0.25000000 </v>
   <v>       0.25000000       0.75000000       0.50000000 </v>
   <v>       0.25000000       0.75000000       0.75000000 </v>
   <v>       0.50000000       0.00000000       0.00000000 </v>
   <v>       0.50000000       0.00000000       0.25000000 </v>
   <v>       0.50000000       0.00000000       0.50000000 </v>
   <v>       0.50000000       0.00000000       0.75000000 </v>
   <v>       0.50000000       0.25000000       0.00000000 </v>
   <v>       0.50000000       0.25000000       0.25000000 </v>
   <v>       0.50000000       0.25000000       0.50000000 </v>
   <v>       0.50000000       0.25000000       0.75000000 </v>
   <v>       0.50000000       0.50000000       0.00000000 </v>
   <v>       0.50000000       0.50000000       0.25000000 </v>
   <v>       0.50000000       0.50000000       0.50000000 </v>
   <v>       0.50000000       0.50000000       0.75000000 </v>
   <v>       0.50000000       0.75000000       0.00000000 </v>
   <v>       0.50000000       0.75000000       0.25000000 </v>
   <v>       0.50000000       0.75000000       0.50000000 </v>
   <v>       0.50000000       0.75000000       0.75000000 </v>
   <v>       0.75000000       0.00000000       0.00000000 </v>
   <v>       0.75000000       0.00000000       0.25000000 </v>
   <v>       0.75000000       0.00000000       0.50000000 </v>
   <v>       0.75000000       0.00000000       0.75000000 </v>
   <v>       0.75000000       0.25000000       0.00000000 </v>
   <v>       0.75000000       0.25000000       0.25000000 </v>
   <v>       0.75000000       0.25000000       0.50000000 </v>
   <v>       0.75000000       0.25000000       0.75000000 </v>
   <v>       0.75000000       0.50000000       0.00000000 </v>
   <v>       0.75000000       0.50000000       0.25000000 </v>
   <v>       0.75000000       0.50000000       0.50000000 </v>
   <v>       0.75000000       0.50000000       0.75000000 </v>
   <v>       0.75000000       0.75000000       0.00000000 </v>
   <v>       0.75000000       0.75000000       0.25000000 </v>
   <v>       0.75000000       0.75000000       0.50000000 </v>
   <v>       0.75000000       0.75000000       0.75000000 </v>
  </varray>
 </structure>
</modeling>
