       N       E                     dE             d eps       ncg     rms          rms(c)
DAV:   1     0.121152686919E+03    0.12115E+03   -0.11117E+04 14311   0.159E+03
DAV:   2    -0.422054619179E+01   -0.12537E+03   -0.11758E+03 13727   0.406E+02
DAV:   3    -0.642581006196E+01   -0.22053E+01   -0.21866E+01 15422   0.661E+01
DAV:   4    -0.644911603204E+01   -0.23306E-01   -0.23305E-01 14467   0.646E+00
DAV:   5    -0.644968557515E+01   -0.56954E-03   -0.56965E-03 15218   0.103E+00    0.849E+00
DAV:   6    -0.627054006144E+01    0.17915E+00   -0.72545E+00 13412   0.607E+01    0.835E+00
DAV:   7    -0.552504597549E+01    0.74549E+00   -0.18745E+00 13732   0.310E+01    0.788E-01
DAV:   8    -0.551918093479E+01    0.58650E-02   -0.12029E-02 14336   0.124E+00    0.327E-01
DAV:   9    -0.551764624648E+01    0.15347E-02   -0.11532E-03 19225   0.543E-01    0.728E-02
DAV:  10    -0.551769715907E+01   -0.50913E-04   -0.59417E-05 13967   0.964E-02    0.386E-02
DAV:  11    -0.551769938407E+01   -0.22250E-05   -0.12630E-05 15058   0.657E-02    0.734E-03
DAV:  12    -0.551769585497E+01    0.35291E-05   -0.15599E-06 11477   0.140E-02    0.492E-03
DAV:  13    -0.551769908083E+01   -0.32259E-05   -0.34604E-07  6926   0.974E-03    0.103E-03
DAV:  14    -0.551769938785E+01   -0.30701E-06   -0.40584E-08  6781   0.281E-03
   1 F= -.55176994E+01 E0= -.55176994E+01  d E =0.000000E+00  mag=     0.6929
