       N       E                     dE             d eps       ncg     rms          rms(c)
DAV:   1     0.157674189206E+05    0.15767E+05   -0.60275E+05 11616   0.220E+03
DAV:   2     0.109251962680E+04   -0.14675E+05   -0.14253E+05 10368   0.710E+02
DAV:   3    -0.349187658877E+03   -0.14417E+04   -0.12077E+04 10520   0.239E+02
DAV:   4    -0.431077845565E+03   -0.81890E+02   -0.79486E+02 11088   0.587E+01
DAV:   5    -0.432449848717E+03   -0.13720E+01   -0.13701E+01 11056   0.745E+00    0.678E+01
DAV:   6    -0.400875957187E+03    0.31574E+02   -0.62077E+02 10912   0.749E+01    0.513E+01
DAV:   7    -0.369542712872E+03    0.31333E+02   -0.12627E+02 10808   0.342E+01    0.608E+00
DAV:   8    -0.369580299818E+03   -0.37587E-01   -0.13480E+00 11080   0.252E+00    0.309E+00
DAV:   9    -0.369432047740E+03    0.14825E+00   -0.24619E-01 11600   0.927E-01    0.791E-01
DAV:  10    -0.369438010004E+03   -0.59623E-02   -0.14315E-02 11736   0.232E-01    0.339E-01
DAV:  11    -0.369442106410E+03   -0.40964E-02   -0.71466E-03 11048   0.189E-01    0.110E-01
DAV:  12    -0.369442138265E+03   -0.31855E-04   -0.76097E-04 10840   0.643E-02    0.259E-02
DAV:  13    -0.369442146081E+03   -0.78163E-05   -0.36601E-05 10768   0.132E-02    0.202E-02
DAV:  14    -0.369442125250E+03    0.20831E-04   -0.89834E-06  9168   0.846E-03    0.648E-03
DAV:  15    -0.369442118447E+03    0.68035E-05   -0.14828E-06  5632   0.367E-03    0.127E-03
DAV:  16    -0.369442118515E+03   -0.68772E-07   -0.21266E-07  5464   0.114E-03
   1 F= -.36944212E+03 E0= -.36943029E+03  d E =-.354785E-01  mag=    44.8513
 Found     1 degrees of freedom:
       N       E                     dE             d eps       ncg     rms          rms(c)
DAV:   1    -0.369345610313E+03    0.96508E-01   -0.22618E+00 20656   0.156E+01    0.560E-01
DAV:   2    -0.369441032056E+03   -0.95422E-01   -0.94139E-01 16152   0.159E+00    0.104E+00
DAV:   3    -0.369445022258E+03   -0.39902E-02   -0.39891E-02 19960   0.101E+00    0.126E+00
DAV:   4    -0.369442804925E+03    0.22173E-02   -0.72422E-03 18240   0.616E-01    0.745E-01
DAV:   5    -0.369441489066E+03    0.13159E-02   -0.12669E-03 17392   0.333E-01    0.185E-01
DAV:   6    -0.369441476551E+03    0.12515E-04   -0.31560E-04 20512   0.851E-02    0.168E-01
DAV:   7    -0.369441414967E+03    0.61584E-04   -0.64624E-05 17440   0.603E-02    0.141E-01
DAV:   8    -0.369441396215E+03    0.18751E-04   -0.60236E-05 17616   0.727E-02    0.151E-01
DAV:   9    -0.369441354873E+03    0.41342E-04   -0.12919E-04 18032   0.114E-01    0.174E-01
DAV:  10    -0.369441264593E+03    0.90280E-04   -0.10960E-04 21056   0.900E-02    0.350E-02
DAV:  11    -0.369441270012E+03   -0.54188E-05   -0.32564E-05 22336   0.345E-02    0.530E-02
DAV:  12    -0.369441265227E+03    0.47853E-05   -0.13189E-05 17064   0.287E-02    0.293E-02
DAV:  13    -0.369441263499E+03    0.17277E-05   -0.41361E-06 14160   0.157E-02    0.951E-03
DAV:  14    -0.369441263760E+03   -0.26124E-06   -0.97576E-07  8408   0.762E-03
   2 F= -.36944126E+03 E0= -.36942944E+03  d E =-.354650E-01  mag=    44.8513
       N       E                     dE             d eps       ncg     rms          rms(c)
DAV:   1    -0.369092963046E+03    0.34830E+00   -0.79962E+00 20640   0.275E+01    0.108E+00
DAV:   2    -0.369453877097E+03   -0.36091E+00   -0.34180E+00 16160   0.289E+00    0.308E+00
DAV:   3    -0.369447063437E+03    0.68137E-02   -0.17803E-01 19376   0.176E+00    0.155E+00
DAV:   4    -0.369452290084E+03   -0.52266E-02   -0.24891E-02 19264   0.123E+00    0.205E+00
DAV:   5    -0.369442156396E+03    0.10134E-01   -0.84023E-03 16904   0.889E-01    0.431E-01
DAV:   6    -0.369441966793E+03    0.18960E-03   -0.14147E-03 19856   0.207E-01    0.303E-01
DAV:   7    -0.369441804920E+03    0.16187E-03   -0.34822E-04 17600   0.129E-01    0.285E-01
DAV:   8    -0.369441639830E+03    0.16509E-03   -0.25005E-04 17560   0.139E-01    0.249E-01
DAV:   9    -0.369441724543E+03   -0.84713E-04   -0.44426E-04 17288   0.204E-01    0.378E-01
DAV:  10    -0.369441310657E+03    0.41389E-03   -0.49848E-04 20784   0.201E-01    0.157E-01
DAV:  11    -0.369441267323E+03    0.43333E-04   -0.16753E-04 20688   0.807E-02    0.589E-02
DAV:  12    -0.369441279745E+03   -0.12421E-04   -0.49276E-05 21232   0.543E-02    0.790E-02
DAV:  13    -0.369441263518E+03    0.16227E-04   -0.28146E-05 17072   0.461E-02    0.191E-02
DAV:  14    -0.369441268628E+03   -0.51101E-05   -0.78593E-06 18120   0.244E-02    0.469E-02
DAV:  15    -0.369441263685E+03    0.49424E-05   -0.49683E-06 13984   0.221E-02    0.104E-02
DAV:  16    -0.369441263975E+03   -0.28955E-06   -0.12390E-06  8296   0.931E-03
   3 F= -.36944126E+03 E0= -.36942944E+03  d E =-.354646E-01  mag=    44.8513
