 vasp.5.4.1 05Feb16 (build Oct 12 2016 17:31:35) complex                        
  
 executed on           IFC91_ompi date 2020.09.07  23:17:50
 running on    4 total cores
 distrk:  each k-point on    4 cores,    1 groups
 distr:  one band on NCORES_PER_BAND=   1 cores,    4 groups


--------------------------------------------------------------------------------------------------------


 INCAR:
 POTCAR:   PAW_PBE Ni_pv 06Sep2000                
 POTCAR:   PAW_PBE Ni_pv 06Sep2000                
  local pseudopotential read in
  partial core-charges read in
  atomic valenz-charges read in
  non local Contribution for L=           1  read in
    real space projection operators read in
  non local Contribution for L=           1  read in
    real space projection operators read in
  non local Contribution for L=           2  read in
    real space projection operators read in
  non local Contribution for L=           2  read in
    real space projection operators read in
  non local Contribution for L=           0  read in
    real space projection operators read in
  non local Contribution for L=           0  read in
    real space projection operators read in
    PAW grid and wavefunctions read in
 
   number of l-projection  operators is LMAX  =           6
   number of lm-projection operators is LMMAX =          18
 
 Optimization of the real space projectors (new method)

 maximal supplied QI-value         = 18.90
 optimisation between [QCUT,QGAM] = [ 10.96, 27.40] = [ 33.64,210.25] Ry 
 Optimized for a Real-space Cutoff    1.19 Angstroem

   l    n(q)    QCUT    max X(q) W(low)/X(q) W(high)/X(q)  e(spline) 
   1      9    10.960     3.231    0.64E-06    0.38E-05    0.29E-07
   1      9    10.960     4.241    0.27E-04    0.99E-05    0.15E-06
   2      9    10.960     3.566    0.37E-04    0.13E-04    0.55E-07
   2      9    10.960    20.429    0.20E-03    0.15E-04    0.28E-06
   0     10    10.960    19.799    0.13E-04    0.31E-05    0.11E-07
   0     10    10.960    52.283    0.57E-04    0.26E-04    0.65E-07
 PAW_PBE Ni_pv 06Sep2000                :
 energy of atom  1       EATOM=-3500.3496
 kinetic energy error for atom=    0.0894 (will be added to EATOM!!)
 
 
 POSCAR: Supercell by Yi Wang                    
  positions in direct lattice
  No initial velocities read in
 exchange correlation table for  LEXCH =        8
   RHO(1)=    0.500       N(1)  =     2000
   RHO(2)=  100.500       N(2)  =     4000
 


--------------------------------------------------------------------------------------------------------


 ion  position               nearest neighbor table
   1  0.000  0.000  0.000-   2 2.53   4 2.53   5 2.53   8 2.53  13 2.53  14 2.53  17 2.53  20 2.53
                            29 2.53  49 2.53  50 2.53  53 2.53
   2  0.000  0.000  0.250-   1 2.53   3 2.53   5 2.53   6 2.53  14 2.53  15 2.53  17 2.53  18 2.53
                            30 2.53  50 2.53  51 2.53  54 2.53
   3  0.000  0.000  0.500-   2 2.53   4 2.53   6 2.53   7 2.53  15 2.53  16 2.53  18 2.53  19 2.53
                            31 2.53  51 2.53  52 2.53  55 2.53
   4  0.000  0.000  0.750-   1 2.53   3 2.53   7 2.53   8 2.53  13 2.53  16 2.53  19 2.53  20 2.53
                            32 2.53  49 2.53  52 2.53  56 2.53
   5  0.000  0.250  0.000-   1 2.53   2 2.53   6 2.53   8 2.53   9 2.53  12 2.53  17 2.53  21 2.53
                            24 2.53  53 2.53  54 2.53  57 2.53
   6  0.000  0.250  0.250-   2 2.53   3 2.53   5 2.53   7 2.53   9 2.53  10 2.53  18 2.53  21 2.53
                            22 2.53  54 2.53  55 2.53  58 2.53
   7  0.000  0.250  0.500-   3 2.53   4 2.53   6 2.53   8 2.53  10 2.53  11 2.53  19 2.53  22 2.53
                            23 2.53  55 2.53  56 2.53  59 2.53
   8  0.000  0.250  0.750-   1 2.53   4 2.53   5 2.53   7 2.53  11 2.53  12 2.53  20 2.53  23 2.53
                            24 2.53  53 2.53  56 2.53  60 2.53
   9  0.000  0.500  0.000-   5 2.53   6 2.53  10 2.53  12 2.53  13 2.53  16 2.53  21 2.53  25 2.53
                            28 2.53  57 2.53  58 2.53  61 2.53
  10  0.000  0.500  0.250-   6 2.53   7 2.53   9 2.53  11 2.53  13 2.53  14 2.53  22 2.53  25 2.53
                            26 2.53  58 2.53  59 2.53  62 2.53
  11  0.000  0.500  0.500-   7 2.53   8 2.53  10 2.53  12 2.53  14 2.53  15 2.53  23 2.53  26 2.53
                            27 2.53  59 2.53  60 2.53  63 2.53
  12  0.000  0.500  0.750-   5 2.53   8 2.53   9 2.53  11 2.53  15 2.53  16 2.53  24 2.53  27 2.53
                            28 2.53  57 2.53  60 2.53  64 2.53
  13  0.000  0.750  0.000-   1 2.53   4 2.53   9 2.53  10 2.53  14 2.53  16 2.53  25 2.53  29 2.53
                            32 2.53  49 2.53  61 2.53  62 2.53
  14  0.000  0.750  0.250-   1 2.53   2 2.53  10 2.53  11 2.53  13 2.53  15 2.53  26 2.53  29 2.53
                            30 2.53  50 2.53  62 2.53  63 2.53
  15  0.000  0.750  0.500-   2 2.53   3 2.53  11 2.53  12 2.53  14 2.53  16 2.53  27 2.53  30 2.53
                            31 2.53  51 2.53  63 2.53  64 2.53
  16  0.000  0.750  0.750-   3 2.53   4 2.53   9 2.53  12 2.53  13 2.53  15 2.53  28 2.53  31 2.53
                            32 2.53  52 2.53  61 2.53  64 2.53
  17  0.250  0.000  0.000-   1 2.53   2 2.53   5 2.53  18 2.53  20 2.53  21 2.53  24 2.53  29 2.53
                            30 2.53  33 2.53  36 2.53  45 2.53
  18  0.250  0.000  0.250-   2 2.53   3 2.53   6 2.53  17 2.53  19 2.53  21 2.53  22 2.53  30 2.53
                            31 2.53  33 2.53  34 2.53  46 2.53
  19  0.250  0.000  0.500-   3 2.53   4 2.53   7 2.53  18 2.53  20 2.53  22 2.53  23 2.53  31 2.53
                            32 2.53  34 2.53  35 2.53  47 2.53
  20  0.250  0.000  0.750-   1 2.53   4 2.53   8 2.53  17 2.53  19 2.53  23 2.53  24 2.53  29 2.53
                            32 2.53  35 2.53  36 2.53  48 2.53
  21  0.250  0.250  0.000-   5 2.53   6 2.53   9 2.53  17 2.53  18 2.53  22 2.53  24 2.53  25 2.53
                            28 2.53  33 2.53  37 2.53  40 2.53
  22  0.250  0.250  0.250-   6 2.53   7 2.53  10 2.53  18 2.53  19 2.53  21 2.53  23 2.53  25 2.53
                            26 2.53  34 2.53  37 2.53  38 2.53
  23  0.250  0.250  0.500-   7 2.53   8 2.53  11 2.53  19 2.53  20 2.53  22 2.53  24 2.53  26 2.53
                            27 2.53  35 2.53  38 2.53  39 2.53
  24  0.250  0.250  0.750-   5 2.53   8 2.53  12 2.53  17 2.53  20 2.53  21 2.53  23 2.53  27 2.53
                            28 2.53  36 2.53  39 2.53  40 2.53
  25  0.250  0.500  0.000-   9 2.53  10 2.53  13 2.53  21 2.53  22 2.53  26 2.53  28 2.53  29 2.53
                            32 2.53  37 2.53  41 2.53  44 2.53
  26  0.250  0.500  0.250-  10 2.53  11 2.53  14 2.53  22 2.53  23 2.53  25 2.53  27 2.53  29 2.53
                            30 2.53  38 2.53  41 2.53  42 2.53
  27  0.250  0.500  0.500-  11 2.53  12 2.53  15 2.53  23 2.53  24 2.53  26 2.53  28 2.53  30 2.53
                            31 2.53  39 2.53  42 2.53  43 2.53
  28  0.250  0.500  0.750-   9 2.53  12 2.53  16 2.53  21 2.53  24 2.53  25 2.53  27 2.53  31 2.53
                            32 2.53  40 2.53  43 2.53  44 2.53
  29  0.250  0.750  0.000-   1 2.53  13 2.53  14 2.53  17 2.53  20 2.53  25 2.53  26 2.53  30 2.53
                            32 2.53  41 2.53  45 2.53  48 2.53
  30  0.250  0.750  0.250-   2 2.53  14 2.53  15 2.53  17 2.53  18 2.53  26 2.53  27 2.53  29 2.53
                            31 2.53  42 2.53  45 2.53  46 2.53
  31  0.250  0.750  0.500-   3 2.53  15 2.53  16 2.53  18 2.53  19 2.53  27 2.53  28 2.53  30 2.53
                            32 2.53  43 2.53  46 2.53  47 2.53
  32  0.250  0.750  0.750-   4 2.53  13 2.53  16 2.53  19 2.53  20 2.53  25 2.53  28 2.53  29 2.53
                            31 2.53  44 2.53  47 2.53  48 2.53
  33  0.500  0.000  0.000-  17 2.53  18 2.53  21 2.53  34 2.53  36 2.53  37 2.53  40 2.53  45 2.53
                            46 2.53  49 2.53  52 2.53  61 2.53
  34  0.500  0.000  0.250-  18 2.53  19 2.53  22 2.53  33 2.53  35 2.53  37 2.53  38 2.53  46 2.53
                            47 2.53  49 2.53  50 2.53  62 2.53
  35  0.500  0.000  0.500-  19 2.53  20 2.53  23 2.53  34 2.53  36 2.53  38 2.53  39 2.53  47 2.53
                            48 2.53  50 2.53  51 2.53  63 2.53
  36  0.500  0.000  0.750-  17 2.53  20 2.53  24 2.53  33 2.53  35 2.53  39 2.53  40 2.53  45 2.53
                            48 2.53  51 2.53  52 2.53  64 2.53
  37  0.500  0.250  0.000-  21 2.53  22 2.53  25 2.53  33 2.53  34 2.53  38 2.53  40 2.53  41 2.53
                            44 2.53  49 2.53  53 2.53  56 2.53
  38  0.500  0.250  0.250-  22 2.53  23 2.53  26 2.53  34 2.53  35 2.53  37 2.53  39 2.53  41 2.53
                            42 2.53  50 2.53  53 2.53  54 2.53
  39  0.500  0.250  0.500-  23 2.53  24 2.53  27 2.53  35 2.53  36 2.53  38 2.53  40 2.53  42 2.53
                            43 2.53  51 2.53  54 2.53  55 2.53
  40  0.500  0.250  0.750-  21 2.53  24 2.53  28 2.53  33 2.53  36 2.53  37 2.53  39 2.53  43 2.53
                            44 2.53  52 2.53  55 2.53  56 2.53
  41  0.500  0.500  0.000-  25 2.53  26 2.53  29 2.53  37 2.53  38 2.53  42 2.53  44 2.53  45 2.53
                            48 2.53  53 2.53  57 2.53  60 2.53
  42  0.500  0.500  0.250-  26 2.53  27 2.53  30 2.53  38 2.53  39 2.53  41 2.53  43 2.53  45 2.53
                            46 2.53  54 2.53  57 2.53  58 2.53
  43  0.500  0.500  0.500-  27 2.53  28 2.53  31 2.53  39 2.53  40 2.53  42 2.53  44 2.53  46 2.53
                            47 2.53  55 2.53  58 2.53  59 2.53
  44  0.500  0.500  0.750-  25 2.53  28 2.53  32 2.53  37 2.53  40 2.53  41 2.53  43 2.53  47 2.53
                            48 2.53  56 2.53  59 2.53  60 2.53
  45  0.500  0.750  0.000-  17 2.53  29 2.53  30 2.53  33 2.53  36 2.53  41 2.53  42 2.53  46 2.53
                            48 2.53  57 2.53  61 2.53  64 2.53
  46  0.500  0.750  0.250-  18 2.53  30 2.53  31 2.53  33 2.53  34 2.53  42 2.53  43 2.53  45 2.53
                            47 2.53  58 2.53  61 2.53  62 2.53
  47  0.500  0.750  0.500-  19 2.53  31 2.53  32 2.53  34 2.53  35 2.53  43 2.53  44 2.53  46 2.53
                            48 2.53  59 2.53  62 2.53  63 2.53
  48  0.500  0.750  0.750-  20 2.53  29 2.53  32 2.53  35 2.53  36 2.53  41 2.53  44 2.53  45 2.53
                            47 2.53  60 2.53  63 2.53  64 2.53
  49  0.750  0.000  0.000-   1 2.53   4 2.53  13 2.53  33 2.53  34 2.53  37 2.53  50 2.53  52 2.53
                            53 2.53  56 2.53  61 2.53  62 2.53
  50  0.750  0.000  0.250-   1 2.53   2 2.53  14 2.53  34 2.53  35 2.53  38 2.53  49 2.53  51 2.53
                            53 2.53  54 2.53  62 2.53  63 2.53
  51  0.750  0.000  0.500-   2 2.53   3 2.53  15 2.53  35 2.53  36 2.53  39 2.53  50 2.53  52 2.53
                            54 2.53  55 2.53  63 2.53  64 2.53
  52  0.750  0.000  0.750-   3 2.53   4 2.53  16 2.53  33 2.53  36 2.53  40 2.53  49 2.53  51 2.53
                            55 2.53  56 2.53  61 2.53  64 2.53
  53  0.750  0.250  0.000-   1 2.53   5 2.53   8 2.53  37 2.53  38 2.53  41 2.53  49 2.53  50 2.53
                            54 2.53  56 2.53  57 2.53  60 2.53
  54  0.750  0.250  0.250-   2 2.53   5 2.53   6 2.53  38 2.53  39 2.53  42 2.53  50 2.53  51 2.53
                            53 2.53  55 2.53  57 2.53  58 2.53
  55  0.750  0.250  0.500-   3 2.53   6 2.53   7 2.53  39 2.53  40 2.53  43 2.53  51 2.53  52 2.53
                            54 2.53  56 2.53  58 2.53  59 2.53
  56  0.750  0.250  0.750-   4 2.53   7 2.53   8 2.53  37 2.53  40 2.53  44 2.53  49 2.53  52 2.53
                            53 2.53  55 2.53  59 2.53  60 2.53
  57  0.750  0.500  0.000-   5 2.53   9 2.53  12 2.53  41 2.53  42 2.53  45 2.53  53 2.53  54 2.53
                            58 2.53  60 2.53  61 2.53  64 2.53
  58  0.750  0.500  0.250-   6 2.53   9 2.53  10 2.53  42 2.53  43 2.53  46 2.53  54 2.53  55 2.53
                            57 2.53  59 2.53  61 2.53  62 2.53
  59  0.750  0.500  0.500-   7 2.53  10 2.53  11 2.53  43 2.53  44 2.53  47 2.53  55 2.53  56 2.53
                            58 2.53  60 2.53  62 2.53  63 2.53
  60  0.750  0.500  0.750-   8 2.53  11 2.53  12 2.53  41 2.53  44 2.53  48 2.53  53 2.53  56 2.53
                            57 2.53  59 2.53  63 2.53  64 2.53
  61  0.750  0.750  0.000-   9 2.53  13 2.53  16 2.53  33 2.53  45 2.53  46 2.53  49 2.53  52 2.53
                            57 2.53  58 2.53  62 2.53  64 2.53
  62  0.750  0.750  0.250-  10 2.53  13 2.53  14 2.53  34 2.53  46 2.53  47 2.53  49 2.53  50 2.53
                            58 2.53  59 2.53  61 2.53  63 2.53
  63  0.750  0.750  0.500-  11 2.53  14 2.53  15 2.53  35 2.53  47 2.53  48 2.53  50 2.53  51 2.53
                            59 2.53  60 2.53  62 2.53  64 2.53
  64  0.750  0.750  0.750-  12 2.53  15 2.53  16 2.53  36 2.53  45 2.53  48 2.53  51 2.53  52 2.53
                            57 2.53  60 2.53  61 2.53  63 2.53
 
  LATTYP: Found a face centered cubic cell.
 ALAT       =    14.3115000000
  
  Lattice vectors:
  
 A1 = (   0.0000000000,   7.1557500000,   7.1557500000)
 A2 = (   7.1557500000,   0.0000000000,   7.1557500000)
 A3 = (   7.1557500000,   7.1557500000,   0.0000000000)


Analysis of symmetry for initial positions (statically):
=====================================================================
 Subroutine PRICEL returns following result:
 
  LATTYP: Found a face centered cubic cell.
 ALAT       =     3.5778750000
  
  Lattice vectors:
  
 A1 = (   0.0000000000,   1.7889375000,   1.7889375000)
 A2 = (   1.7889375000,   0.0000000000,   1.7889375000)
 A3 = (   1.7889375000,   1.7889375000,   0.0000000000)
 
  64 primitive cells build up your supercell.
 

 Routine SETGRP: Setting up the symmetry group for a 
 face centered cubic supercell.


 Subroutine GETGRP returns: Found 48 space group operations
 (whereof 48 operations were pure point group operations)
 out of a pool of 48 trial point group operations.


The static configuration has the point symmetry O_h .


Analysis of symmetry for dynamics (positions and initial velocities):
=====================================================================
 Subroutine PRICEL returns following result:
 
  LATTYP: Found a face centered cubic cell.
 ALAT       =     3.5778750000
  
  Lattice vectors:
  
 A1 = (   0.0000000000,   1.7889375000,   1.7889375000)
 A2 = (   1.7889375000,   0.0000000000,   1.7889375000)
 A3 = (   1.7889375000,   1.7889375000,   0.0000000000)
 
  64 primitive cells build up your supercell.
 

 Routine SETGRP: Setting up the symmetry group for a 
 face centered cubic supercell.


 Subroutine GETGRP returns: Found 48 space group operations
 (whereof 48 operations were pure point group operations)
 out of a pool of 48 trial point group operations.


The dynamic configuration has the point symmetry O_h .


Analysis of structural, dynamic, and magnetic symmetry:
=====================================================================
 Subroutine PRICEL returns following result:
 
  LATTYP: Found a face centered cubic cell.
 ALAT       =     3.5778750000
  
  Lattice vectors:
  
 A1 = (   0.0000000000,   1.7889375000,   1.7889375000)
 A2 = (   1.7889375000,   0.0000000000,   1.7889375000)
 A3 = (   1.7889375000,   1.7889375000,   0.0000000000)
 
  64 primitive cells build up your supercell.
 

 Routine SETGRP: Setting up the symmetry group for a 
 face centered cubic supercell.


 Subroutine GETGRP returns: Found 48 space group operations
 (whereof 48 operations were pure point group operations)
 out of a pool of 48 trial point group operations.


The magnetic configuration has the point symmetry O_h .


 Subroutine INISYM returns: Found 48 space group operations
 (whereof 48 operations are pure point group operations),
 and found    64 'primitive' translations

 
 
 KPOINTS: Zr 15x15x15                             

Automatic generation of k-mesh.
Space group operators:
 irot       det(A)        alpha          n_x          n_y          n_z        tau_x        tau_y        tau_z
    1     1.000000     0.000000     1.000000     0.000000     0.000000     0.000000     0.000000     0.000000
    2    -1.000000     0.000000     1.000000     0.000000     0.000000     0.000000     0.000000     0.000000
    3     1.000000   120.000000    -0.577350    -0.577350    -0.577350     0.000000     0.000000     0.000000
    4    -1.000000   120.000000    -0.577350    -0.577350    -0.577350     0.000000     0.000000     0.000000
    5     1.000000   120.000000     0.577350     0.577350     0.577350     0.000000     0.000000     0.000000
    6    -1.000000   120.000000     0.577350     0.577350     0.577350     0.000000     0.000000     0.000000
    7     1.000000    90.000000     0.000000     0.000000    -1.000000     0.000000     0.000000     0.000000
    8    -1.000000    90.000000     0.000000     0.000000    -1.000000     0.000000     0.000000     0.000000
    9     1.000000   180.000000     0.000000     0.707107     0.707107     0.000000     0.000000     0.000000
   10    -1.000000   180.000000     0.000000     0.707107     0.707107     0.000000     0.000000     0.000000
   11     1.000000    90.000000     0.000000     1.000000     0.000000     0.000000     0.000000     0.000000
   12    -1.000000    90.000000     0.000000     1.000000     0.000000     0.000000     0.000000     0.000000
   13     1.000000   180.000000     0.000000     0.000000     1.000000     0.000000     0.000000     0.000000
   14    -1.000000   180.000000     0.000000     0.000000     1.000000     0.000000     0.000000     0.000000
   15     1.000000   120.000000    -0.577350     0.577350     0.577350     0.000000     0.000000     0.000000
   16    -1.000000   120.000000    -0.577350     0.577350     0.577350     0.000000     0.000000     0.000000
   17     1.000000   120.000000    -0.577350     0.577350    -0.577350     0.000000     0.000000     0.000000
   18    -1.000000   120.000000    -0.577350     0.577350    -0.577350     0.000000     0.000000     0.000000
   19     1.000000    90.000000     0.000000     0.000000     1.000000     0.000000     0.000000     0.000000
   20    -1.000000    90.000000     0.000000     0.000000     1.000000     0.000000     0.000000     0.000000
   21     1.000000    90.000000    -1.000000     0.000000     0.000000     0.000000     0.000000     0.000000
   22    -1.000000    90.000000    -1.000000     0.000000     0.000000     0.000000     0.000000     0.000000
   23     1.000000   180.000000     0.707107     0.000000     0.707107     0.000000     0.000000     0.000000
   24    -1.000000   180.000000     0.707107     0.000000     0.707107     0.000000     0.000000     0.000000
   25     1.000000   120.000000     0.577350    -0.577350     0.577350     0.000000     0.000000     0.000000
   26    -1.000000   120.000000     0.577350    -0.577350     0.577350     0.000000     0.000000     0.000000
   27     1.000000   120.000000    -0.577350    -0.577350     0.577350     0.000000     0.000000     0.000000
   28    -1.000000   120.000000    -0.577350    -0.577350     0.577350     0.000000     0.000000     0.000000
   29     1.000000   180.000000     1.000000     0.000000     0.000000     0.000000     0.000000     0.000000
   30    -1.000000   180.000000     1.000000     0.000000     0.000000     0.000000     0.000000     0.000000
   31     1.000000    90.000000     0.000000    -1.000000     0.000000     0.000000     0.000000     0.000000
   32    -1.000000    90.000000     0.000000    -1.000000     0.000000     0.000000     0.000000     0.000000
   33     1.000000   180.000000     0.707107     0.707107     0.000000     0.000000     0.000000     0.000000
   34    -1.000000   180.000000     0.707107     0.707107     0.000000     0.000000     0.000000     0.000000
   35     1.000000    90.000000     1.000000     0.000000     0.000000     0.000000     0.000000     0.000000
   36    -1.000000    90.000000     1.000000     0.000000     0.000000     0.000000     0.000000     0.000000
   37     1.000000   120.000000     0.577350    -0.577350    -0.577350     0.000000     0.000000     0.000000
   38    -1.000000   120.000000     0.577350    -0.577350    -0.577350     0.000000     0.000000     0.000000
   39     1.000000   180.000000     0.000000     1.000000     0.000000     0.000000     0.000000     0.000000
   40    -1.000000   180.000000     0.000000     1.000000     0.000000     0.000000     0.000000     0.000000
   41     1.000000   120.000000     0.577350     0.577350    -0.577350     0.000000     0.000000     0.000000
   42    -1.000000   120.000000     0.577350     0.577350    -0.577350     0.000000     0.000000     0.000000
   43     1.000000   180.000000     0.000000    -0.707107     0.707107     0.000000     0.000000     0.000000
   44    -1.000000   180.000000     0.000000    -0.707107     0.707107     0.000000     0.000000     0.000000
   45     1.000000   180.000000     0.707107    -0.707107     0.000000     0.000000     0.000000     0.000000
   46    -1.000000   180.000000     0.707107    -0.707107     0.000000     0.000000     0.000000     0.000000
   47     1.000000   180.000000     0.707107     0.000000    -0.707107     0.000000     0.000000     0.000000
   48    -1.000000   180.000000     0.707107     0.000000    -0.707107     0.000000     0.000000     0.000000
 
 Subroutine IBZKPT returns following result:
 ===========================================
 
 Found      4 irreducible k-points:
 
 Following reciprocal coordinates:
            Coordinates               Weight
  0.000000  0.000000  0.000000      1.000000
  0.333333  0.000000  0.000000      8.000000
  0.333333  0.333333  0.000000      6.000000
 -0.333333  0.333333  0.000000     12.000000
 
 Following cartesian coordinates:
            Coordinates               Weight
  0.000000  0.000000  0.000000      1.000000
 -0.023291  0.023291  0.023291      8.000000
  0.000000  0.000000  0.046583      6.000000
  0.046583 -0.046583  0.000000     12.000000
 
 
 Subroutine IBZKPT_HF returns following result:
 ==============================================
 
 Found     27 k-points in 1st BZ
 the following     27 k-points will be used (e.g. in the exchange kernel)
 Following reciprocal coordinates:   # in IRBZ
  0.000000  0.000000  0.000000    0.03703704   1 t-inv F
  0.333333  0.000000  0.000000    0.03703704   2 t-inv F
  0.333333  0.333333  0.000000    0.03703704   3 t-inv F
 -0.333333  0.333333  0.000000    0.03703704   4 t-inv F
 -0.333333  0.000000  0.000000    0.03703704   2 t-inv F
  0.000000  0.333333  0.000000    0.03703704   2 t-inv F
  0.000000 -0.333333  0.000000    0.03703704   2 t-inv F
  0.000000  0.000000  0.333333    0.03703704   2 t-inv F
  0.000000  0.000000 -0.333333    0.03703704   2 t-inv F
  0.333333  0.333333  0.333333    0.03703704   2 t-inv F
 -0.333333 -0.333333 -0.333333    0.03703704   2 t-inv F
 -0.333333 -0.333333  0.000000    0.03703704   3 t-inv F
  0.000000  0.333333  0.333333    0.03703704   3 t-inv F
  0.000000 -0.333333 -0.333333    0.03703704   3 t-inv F
  0.333333  0.000000  0.333333    0.03703704   3 t-inv F
 -0.333333  0.000000 -0.333333    0.03703704   3 t-inv F
  0.333333 -0.333333  0.000000    0.03703704   4 t-inv F
  0.000000 -0.333333  0.333333    0.03703704   4 t-inv F
  0.000000  0.333333 -0.333333    0.03703704   4 t-inv F
  0.333333  0.000000 -0.333333    0.03703704   4 t-inv F
 -0.333333  0.000000  0.333333    0.03703704   4 t-inv F
  0.333333  0.333333  0.666667    0.03703704   4 t-inv F
 -0.333333 -0.333333 -0.666667    0.03703704   4 t-inv F
 -0.333333 -0.666667 -0.333333    0.03703704   4 t-inv F
  0.333333  0.666667  0.333333    0.03703704   4 t-inv F
 -0.666667 -0.333333 -0.333333    0.03703704   4 t-inv F
  0.666667  0.333333  0.333333    0.03703704   4 t-inv F


--------------------------------------------------------------------------------------------------------




 Dimension of arrays:
   k-points           NKPTS =      4   k-points in BZ     NKDIM =      4   number of bands    NBANDS=    648
   number of dos      NEDOS =    301   number of ions     NIONS =     64
   non local maximal  LDIM  =      6   non local SUM 2l+1 LMDIM =     18
   total plane-waves  NPLWV = 373248
   max r-space proj   IRMAX =   3681   max aug-charges    IRDMAX=   6707
   dimension x,y,z NGX =    72 NGY =   72 NGZ =   72
   dimension x,y,z NGXF=   120 NGYF=  120 NGZF=  120
   support grid    NGXF=   120 NGYF=  120 NGZF=  120
   ions per type =              64
 NGX,Y,Z   is equivalent  to a cutoff of  11.83, 11.83, 11.83 a.u.
 NGXF,Y,Z  is equivalent  to a cutoff of  19.71, 19.71, 19.71 a.u.


 I would recommend the setting:
   dimension x,y,z NGX =    71 NGY =   71 NGZ =   71
 SYSTEM =  phonon of Zr bcc - omiga                
 POSCAR =  Supercell by Yi Wang                    

 Startparameter for this run:
   NWRITE =      0    write-flag & timer
   PREC   = h         normal or accurate (medium, high low for compatibility)
   ISTART =      0    job   : 0-new  1-cont  2-samecut
   ICHARG =      2    charge: 1-file 2-atom 10-const
   ISPIN  =      2    spin polarized calculation?
   LNONCOLLINEAR =      F non collinear calculations
   LSORBIT =      F    spin-orbit coupling
   INIWAV =      1    electr: 0-lowe 1-rand  2-diag
   LASPH  =      F    aspherical Exc in radial PAW
   METAGGA=      F    non-selfconsistent MetaGGA calc.

 Electronic Relaxation 1
   ENCUT  =  459.9 eV  33.80 Ry    5.81 a.u.  17.70 17.70 17.70*2*pi/ulx,y,z
   ENINI  =  459.9     initial cutoff
   ENAUG  =  703.4 eV  augmentation charge cutoff
   NELM   =     60;   NELMIN=  2; NELMDL=  0     # of ELM steps 
   EDIFF  = 0.1E-05   stopping-criterion for ELM
   LREAL  =      T    real-space projection
   NLSPLINE    = F    spline interpolate recip. space projectors
   LCOMPAT=      F    compatible to vasp.4.4
   GGA_COMPAT  = T    GGA compatible to vasp.4.4-vasp.4.6
   LMAXPAW     = -100 max onsite density
   LMAXMIX     =    2 max onsite mixed and CHGCAR
   VOSKOWN=      0    Vosko Wilk Nusair interpolation
   ROPT   =   -0.00040
 Ionic relaxation
   EDIFFG = 0.1E-04   stopping-criterion for IOM
   NSW    =    805    number of steps for IOM
   NBLOCK =      1;   KBLOCK =      1    inner block; outer block 
   IBRION =      6    ionic relax: 0-MD 1-quasi-New 2-CG
   NFREE  =      2    steps in history (QN), initial steepest desc. (CG)
   ISIF   =      2    stress and relaxation
   IWAVPR =     11    prediction:  0-non 1-charg 2-wave 3-comb
   ISYM   =      2    0-nonsym 1-usesym 2-fastsym
   LCORR  =      T    Harris-Foulkes like correction to forces

   POTIM  = 0.5000    time-step for ionic-motion
   TEIN   =    0.0    initial temperature
   TEBEG  =    0.0;   TEEND  =   0.0 temperature during run
   SMASS  =  -3.00    Nose mass-parameter (am)
   estimated Nose-frequenzy (Omega)   =  0.10E-29 period in steps =****** mass=  -0.234E-26a.u.
   SCALEE = 1.0000    scale energy and forces
   NPACO  =    256;   APACO  = 16.0  distance and # of slots for P.C.
   PSTRESS=    0.0 pullay stress

  Mass of Ions in am
   POMASS =  58.69
  Ionic Valenz
   ZVAL   =  16.00
  Atomic Wigner-Seitz radii
   RWIGS  =  -1.00
  virtual crystal weights 
   VCA    =   1.00
   NELECT =    1024.0000    total number of electrons
   NUPDOWN=      -1.0000    fix difference up-down

 DOS related values:
   EMIN   =  10.00;   EMAX   =-10.00  energy-range for DOS
   EFERMI =   0.00
   ISMEAR =     1;   SIGMA  =   0.20  broadening in eV -4-tet -1-fermi 0-gaus

 Electronic relaxation 2 (details)
   IALGO  =     38    algorithm
   LDIAG  =      T    sub-space diagonalisation (order eigenvalues)
   LSUBROT=      F    optimize rotation matrix (better conditioning)
   TURBO    =      0    0=normal 1=particle mesh
   IRESTART =      0    0=no restart 2=restart with 2 vectors
   NREBOOT  =      0    no. of reboots
   NMIN     =      0    reboot dimension
   EREF     =   0.00    reference energy to select bands
   IMIX   =      4    mixing-type and parameters
     AMIX     =   0.40;   BMIX     =  1.00
     AMIX_MAG =   1.60;   BMIX_MAG =  1.00
     AMIN     =   0.10
     WC   =   100.;   INIMIX=   1;  MIXPRE=   1;  MAXMIX= -45

 Intra band minimization:
   WEIMIN = 0.0010     energy-eigenvalue tresh-hold
   EBREAK =  0.39E-09  absolut break condition
   DEPER  =   0.30     relativ break condition  

   TIME   =   0.40     timestep for ELM

  volume/ion in A,a.u.               =      11.45        77.27
  Fermi-wavevector in a.u.,A,eV,Ry     =   1.830247  3.458665 45.576842  3.349803
  Thomas-Fermi vector in A             =   2.884754
 
 Write flags
   LWAVE  =      T    write WAVECAR
   LCHARG =      T    write CHGCAR
   LVTOT  =      F    write LOCPOT, total local potential
   LVHAR  =      F    write LOCPOT, Hartree potential only
   LELF   =      F    write electronic localiz. function (ELF)
   LORBIT =      0    0 simple, 1 ext, 2 COOP (PROOUT)


 Dipole corrections
   LMONO  =      F    monopole corrections only (constant potential shift)
   LDIPOL =      F    correct potential (dipole corrections)
   IDIPOL =      0    1-x, 2-y, 3-z, 4-all directions 
   EPSILON=  1.0000000 bulk dielectric constant

 Exchange correlation treatment:
   GGA     =    --    GGA type
   LEXCH   =     8    internal setting for exchange type
   VOSKOWN=      0    Vosko Wilk Nusair interpolation
   LHFCALC =     F    Hartree Fock is set to
   LHFONE  =     F    Hartree Fock one center treatment
   AEXX    =    0.0000 exact exchange contribution

 Linear response parameters
   LEPSILON=     F    determine dielectric tensor
   LRPA    =     F    only Hartree local field effects (RPA)
   LNABLA  =     F    use nabla operator in PAW spheres
   LVEL    =     F    velocity operator in full k-point grid
   LINTERFAST=   F  fast interpolation
   KINTER  =     0    interpolate to denser k-point grid
   CSHIFT  =0.1000    complex shift for real part using Kramers Kronig
   OMEGAMAX=  -1.0    maximum frequency
   DEG_THRESHOLD= 0.2000000E-02 threshold for treating states as degnerate
   RTIME   =    0.100 relaxation time in fs

 Orbital magnetization related:
   ORBITALMAG=     F  switch on orbital magnetization
   LCHIMAG   =     F  perturbation theory with respect to B field
   DQ        =  0.001000  dq finite difference perturbation B field



--------------------------------------------------------------------------------------------------------


 finite differences with symmetry
 charge density and potential will be updated during run
 spin polarized calculation
 Variant of blocked Davidson
 Davidson routine will perform the subspace rotation
 perform sub-space diagonalisation
    after iterative eigenvector-optimisation
 modified Broyden-mixing scheme, WC =      100.0
 initial mixing is a Kerker type mixing with AMIX =  0.4000 and BMIX =      1.0000
 Hartree-type preconditioning will be used
 using additional bands          136
 real space projection scheme for non local part
 use partial core corrections
 calculate Harris-corrections to forces 
   (improved forces if not selfconsistent)
 use gradient corrections 
 use of overlap-Matrix (Vanderbilt PP)
 Methfessel and Paxton  Order N= 1 SIGMA  =   0.20


--------------------------------------------------------------------------------------------------------


  energy-cutoff  :      459.93
  volume of cell :      732.82
      direct lattice vectors                 reciprocal lattice vectors
     0.000000000  7.155750000  7.155750000    -0.069873878  0.069873878  0.069873878
     7.155750000  0.000000000  7.155750000     0.069873878 -0.069873878  0.069873878
     7.155750000  7.155750000  0.000000000     0.069873878  0.069873878 -0.069873878

  length of vectors
    10.119758699 10.119758699 10.119758699     0.121025106  0.121025106  0.121025106


 
 k-points in units of 2pi/SCALE and weight: Zr 15x15x15                             
   0.00000000  0.00000000  0.00000000       0.037
  -0.02329129  0.02329129  0.02329129       0.296
   0.00000000  0.00000000  0.04658259       0.222
   0.04658259 -0.04658259  0.00000000       0.444
 
 k-points in reciprocal lattice and weights: Zr 15x15x15                             
   0.00000000  0.00000000  0.00000000       0.037
   0.33333333  0.00000000  0.00000000       0.296
   0.33333333  0.33333333  0.00000000       0.222
  -0.33333333  0.33333333  0.00000000       0.444
 
 position of ions in fractional coordinates (direct lattice) 
   0.00000000  0.00000000  0.00000000
   0.00000000  0.00000000  0.25000000
   0.00000000  0.00000000  0.50000000
   0.00000000  0.00000000  0.75000000
   0.00000000  0.25000000  0.00000000
   0.00000000  0.25000000  0.25000000
   0.00000000  0.25000000  0.50000000
   0.00000000  0.25000000  0.75000000
   0.00000000  0.50000000  0.00000000
   0.00000000  0.50000000  0.25000000
   0.00000000  0.50000000  0.50000000
   0.00000000  0.50000000  0.75000000
   0.00000000  0.75000000  0.00000000
   0.00000000  0.75000000  0.25000000
   0.00000000  0.75000000  0.50000000
   0.00000000  0.75000000  0.75000000
   0.25000000  0.00000000  0.00000000
   0.25000000  0.00000000  0.25000000
   0.25000000  0.00000000  0.50000000
   0.25000000  0.00000000  0.75000000
   0.25000000  0.25000000  0.00000000
   0.25000000  0.25000000  0.25000000
   0.25000000  0.25000000  0.50000000
   0.25000000  0.25000000  0.75000000
   0.25000000  0.50000000  0.00000000
   0.25000000  0.50000000  0.25000000
   0.25000000  0.50000000  0.50000000
   0.25000000  0.50000000  0.75000000
   0.25000000  0.75000000  0.00000000
   0.25000000  0.75000000  0.25000000
   0.25000000  0.75000000  0.50000000
   0.25000000  0.75000000  0.75000000
   0.50000000  0.00000000  0.00000000
   0.50000000  0.00000000  0.25000000
   0.50000000  0.00000000  0.50000000
   0.50000000  0.00000000  0.75000000
   0.50000000  0.25000000  0.00000000
   0.50000000  0.25000000  0.25000000
   0.50000000  0.25000000  0.50000000
   0.50000000  0.25000000  0.75000000
   0.50000000  0.50000000  0.00000000
   0.50000000  0.50000000  0.25000000
   0.50000000  0.50000000  0.50000000
   0.50000000  0.50000000  0.75000000
   0.50000000  0.75000000  0.00000000
   0.50000000  0.75000000  0.25000000
   0.50000000  0.75000000  0.50000000
   0.50000000  0.75000000  0.75000000
   0.75000000  0.00000000  0.00000000
   0.75000000  0.00000000  0.25000000
   0.75000000  0.00000000  0.50000000
   0.75000000  0.00000000  0.75000000
   0.75000000  0.25000000  0.00000000
   0.75000000  0.25000000  0.25000000
   0.75000000  0.25000000  0.50000000
   0.75000000  0.25000000  0.75000000
   0.75000000  0.50000000  0.00000000
   0.75000000  0.50000000  0.25000000
   0.75000000  0.50000000  0.50000000
   0.75000000  0.50000000  0.75000000
   0.75000000  0.75000000  0.00000000
   0.75000000  0.75000000  0.25000000
   0.75000000  0.75000000  0.50000000
   0.75000000  0.75000000  0.75000000
 
 position of ions in cartesian coordinates  (Angst):
   0.00000000  0.00000000  0.00000000
   1.78893750  1.78893750  0.00000000
   3.57787500  3.57787500  0.00000000
   5.36681250  5.36681250  0.00000000
   1.78893750  0.00000000  1.78893750
   3.57787500  1.78893750  1.78893750
   5.36681250  3.57787500  1.78893750
   7.15575000  5.36681250  1.78893750
   3.57787500  0.00000000  3.57787500
   5.36681250  1.78893750  3.57787500
   7.15575000  3.57787500  3.57787500
   8.94468750  5.36681250  3.57787500
   5.36681250  0.00000000  5.36681250
   7.15575000  1.78893750  5.36681250
   8.94468750  3.57787500  5.36681250
  10.73362500  5.36681250  5.36681250
   0.00000000  1.78893750  1.78893750
   1.78893750  3.57787500  1.78893750
   3.57787500  5.36681250  1.78893750
   5.36681250  7.15575000  1.78893750
   1.78893750  1.78893750  3.57787500
   3.57787500  3.57787500  3.57787500
   5.36681250  5.36681250  3.57787500
   7.15575000  7.15575000  3.57787500
   3.57787500  1.78893750  5.36681250
   5.36681250  3.57787500  5.36681250
   7.15575000  5.36681250  5.36681250
   8.94468750  7.15575000  5.36681250
   5.36681250  1.78893750  7.15575000
   7.15575000  3.57787500  7.15575000
   8.94468750  5.36681250  7.15575000
  10.73362500  7.15575000  7.15575000
   0.00000000  3.57787500  3.57787500
   1.78893750  5.36681250  3.57787500
   3.57787500  7.15575000  3.57787500
   5.36681250  8.94468750  3.57787500
   1.78893750  3.57787500  5.36681250
   3.57787500  5.36681250  5.36681250
   5.36681250  7.15575000  5.36681250
   7.15575000  8.94468750  5.36681250
   3.57787500  3.57787500  7.15575000
   5.36681250  5.36681250  7.15575000
   7.15575000  7.15575000  7.15575000
   8.94468750  8.94468750  7.15575000
   5.36681250  3.57787500  8.94468750
   7.15575000  5.36681250  8.94468750
   8.94468750  7.15575000  8.94468750
  10.73362500  8.94468750  8.94468750
   0.00000000  5.36681250  5.36681250
   1.78893750  7.15575000  5.36681250
   3.57787500  8.94468750  5.36681250
   5.36681250 10.73362500  5.36681250
   1.78893750  5.36681250  7.15575000
   3.57787500  7.15575000  7.15575000
   5.36681250  8.94468750  7.15575000
   7.15575000 10.73362500  7.15575000
   3.57787500  5.36681250  8.94468750
   5.36681250  7.15575000  8.94468750
   7.15575000  8.94468750  8.94468750
   8.94468750 10.73362500  8.94468750
   5.36681250  5.36681250 10.73362500
   7.15575000  7.15575000 10.73362500
   8.94468750  8.94468750 10.73362500
  10.73362500 10.73362500 10.73362500
 


--------------------------------------------------------------------------------------------------------


 k-point  1 :   0.0000 0.0000 0.0000  plane waves:   16361
 k-point  2 :   0.3333 0.0000 0.0000  plane waves:   16382
 k-point  3 :   0.3333 0.3333 0.0000  plane waves:   16409
 k-point  4 :  -0.3333 0.3333 0.0000  plane waves:   16442

 maximum and minimum number of plane-waves per node :     16442    16361

 maximum number of plane-waves:     16442
 maximum index in each direction: 
   IXMAX=   18   IYMAX=   17   IZMAX=   17
   IXMIN=  -18   IYMIN=  -18   IZMIN=  -17

 WARNING: aliasing errors must be expected set NGX to  74 to avoid them
 NGY is ok and might be reduce to  72
 NGZ is ok and might be reduce to  70
 aliasing errors are usually negligible using standard VASP settings
 and one can safely disregard these warnings

 serial   3D FFT for wavefunctions
 parallel 3D FFT for charge:
    minimum data exchange during FFTs selected (reduces bandwidth)


 total amount of memory used by VASP on root node   514670. kBytes
========================================================================

   base      :      30000. kBytes
   nonlr-proj:      39547. kBytes
   fftplans  :      16731. kBytes
   grid      :      61532. kBytes
   one-center:       1990. kBytes
   wavefun   :     364870. kBytes
 
     INWAV:  cpu time    0.0010: real time    0.0000
 Broyden mixing: mesh for mixing (old mesh)
   NGX = 35   NGY = 35   NGZ = 35
  (NGX  =120   NGY  =120   NGZ  =120)
  gives a total of  42875 points

 initial charge density was supplied:
 charge density of overlapping atoms calculated
 number of electron    1024.0000000 magnetization      64.0000000
 keeping initial charge density in first step


--------------------------------------------------------------------------------------------------------


 Maximum index for non-local projection operator         3511
 Maximum index for augmentation-charges         1616 (set IRDMAX)


--------------------------------------------------------------------------------------------------------


 First call to EWALD:  gamma=   0.197
 Maximum number of real-space cells 3x 3x 3
 Maximum number of reciprocal cells 3x 3x 3

 FEWALD executed in parallel
    FEWALD:  cpu time    0.0070: real time    0.0069


----------------------------------------- Iteration    1(   1)  ---------------------------------------


    POTLOK:  cpu time    0.5119: real time    0.5117
    SETDIJ:  cpu time    0.0910: real time    0.0909
     EDDAV:  cpu time  155.6083: real time  155.4861
       DOS:  cpu time    0.0040: real time    0.0044
    --------------------------------------------
      LOOP:  cpu time  156.2163: real time  156.0959

 eigenvalue-minimisations  : 11616
 total energy-change (2. order) : 0.1576742E+05  (-0.6027479E+05)
 number of electron    1024.0000000 magnetization      64.0000000
 augmentation part     1024.0000000 magnetization      64.0000000

 Free energy of the ion-electron system (eV)
  ---------------------------------------------------
  alpha Z        PSCENC =      9415.99145534
  Ewald energy   TEWEN  =   -151163.59208212
  -Hartree energ DENC   =    -63206.27708342
  -exchange      EXHF   =         0.00000000
  -V(xc)+E(xc)   XCENC  =      5707.96683431
  PAW double counting   =    172361.15642774  -181272.45834873
  entropy T*S    EENTRO =        -0.01445057
  eigenvalues    EBANDS =       -92.00599843
  atomic energy  EATOM  =    224016.65216645
  Solvation  Ediel_sol  =         0.00000000
  ---------------------------------------------------
  free energy    TOTEN  =     15767.41892057 eV

  energy without entropy =    15767.43337115  energy(sigma->0) =    15767.42373743


--------------------------------------------------------------------------------------------------------




----------------------------------------- Iteration    1(   2)  ---------------------------------------


     EDDAV:  cpu time  143.6732: real time  143.5585
       DOS:  cpu time    0.0040: real time    0.0038
    --------------------------------------------
      LOOP:  cpu time  143.6782: real time  143.5629

 eigenvalue-minimisations  : 10368
 total energy-change (2. order) :-0.1467490E+05  (-0.1425255E+05)
 number of electron    1024.0000000 magnetization      64.0000000
 augmentation part     1024.0000000 magnetization      64.0000000

 Free energy of the ion-electron system (eV)
  ---------------------------------------------------
  alpha Z        PSCENC =      9415.99145534
  Ewald energy   TEWEN  =   -151163.59208212
  -Hartree energ DENC   =    -63206.27708342
  -exchange      EXHF   =         0.00000000
  -V(xc)+E(xc)   XCENC  =      5707.96683431
  PAW double counting   =    172361.15642774  -181272.45834873
  entropy T*S    EENTRO =         0.03199457
  eigenvalues    EBANDS =    -14766.95173735
  atomic energy  EATOM  =    224016.65216645
  Solvation  Ediel_sol  =         0.00000000
  ---------------------------------------------------
  free energy    TOTEN  =      1092.51962680 eV

  energy without entropy =     1092.48763223  energy(sigma->0) =     1092.50896194


--------------------------------------------------------------------------------------------------------




----------------------------------------- Iteration    1(   3)  ---------------------------------------


     EDDAV:  cpu time  144.8400: real time  144.7248
       DOS:  cpu time    0.0030: real time    0.0041
    --------------------------------------------
      LOOP:  cpu time  144.8440: real time  144.7294

 eigenvalue-minimisations  : 10520
 total energy-change (2. order) :-0.1441707E+04  (-0.1207744E+04)
 number of electron    1024.0000000 magnetization      64.0000000
 augmentation part     1024.0000000 magnetization      64.0000000

 Free energy of the ion-electron system (eV)
  ---------------------------------------------------
  alpha Z        PSCENC =      9415.99145534
  Ewald energy   TEWEN  =   -151163.59208212
  -Hartree energ DENC   =    -63206.27708342
  -exchange      EXHF   =         0.00000000
  -V(xc)+E(xc)   XCENC  =      5707.96683431
  PAW double counting   =    172361.15642774  -181272.45834873
  entropy T*S    EENTRO =         0.16710246
  eigenvalues    EBANDS =    -16208.79413091
  atomic energy  EATOM  =    224016.65216645
  Solvation  Ediel_sol  =         0.00000000
  ---------------------------------------------------
  free energy    TOTEN  =      -349.18765888 eV

  energy without entropy =     -349.35476134  energy(sigma->0) =     -349.24335970


--------------------------------------------------------------------------------------------------------




----------------------------------------- Iteration    1(   4)  ---------------------------------------


     EDDAV:  cpu time  150.5591: real time  150.4409
       DOS:  cpu time    0.0040: real time    0.0039
    --------------------------------------------
      LOOP:  cpu time  150.5641: real time  150.4454

 eigenvalue-minimisations  : 11088
 total energy-change (2. order) :-0.8189019E+02  (-0.7948561E+02)
 number of electron    1024.0000000 magnetization      64.0000000
 augmentation part     1024.0000000 magnetization      64.0000000

 Free energy of the ion-electron system (eV)
  ---------------------------------------------------
  alpha Z        PSCENC =      9415.99145534
  Ewald energy   TEWEN  =   -151163.59208212
  -Hartree energ DENC   =    -63206.27708342
  -exchange      EXHF   =         0.00000000
  -V(xc)+E(xc)   XCENC  =      5707.96683431
  PAW double counting   =    172361.15642774  -181272.45834873
  entropy T*S    EENTRO =         0.17749878
  eigenvalues    EBANDS =    -16290.69471392
  atomic energy  EATOM  =    224016.65216645
  Solvation  Ediel_sol  =         0.00000000
  ---------------------------------------------------
  free energy    TOTEN  =      -431.07784556 eV

  energy without entropy =     -431.25534435  energy(sigma->0) =     -431.13701183


--------------------------------------------------------------------------------------------------------




----------------------------------------- Iteration    1(   5)  ---------------------------------------


     EDDAV:  cpu time  153.2387: real time  153.1219
       DOS:  cpu time    0.0050: real time    0.0043
    CHARGE:  cpu time    8.8647: real time    8.8586
    MIXING:  cpu time    0.0110: real time    0.0100
    --------------------------------------------
      LOOP:  cpu time  162.1204: real time  161.9955

 eigenvalue-minimisations  : 11056
 total energy-change (2. order) :-0.1372003E+01  (-0.1370128E+01)
 number of electron    1024.0000656 magnetization      57.9946830
 augmentation part      573.2636765 magnetization      46.4456401

 Broyden mixing:
  rms(total) = 0.67807E+01    rms(broyden)= 0.67784E+01
  rms(prec ) = 0.92076E+01
  weight for this iteration     100.00

 Free energy of the ion-electron system (eV)
  ---------------------------------------------------
  alpha Z        PSCENC =      9415.99145534
  Ewald energy   TEWEN  =   -151163.59208212
  -Hartree energ DENC   =    -63206.27708342
  -exchange      EXHF   =         0.00000000
  -V(xc)+E(xc)   XCENC  =      5707.96683431
  PAW double counting   =    172361.15642774  -181272.45834873
  entropy T*S    EENTRO =         0.17730610
  eigenvalues    EBANDS =    -16292.06652439
  atomic energy  EATOM  =    224016.65216645
  Solvation  Ediel_sol  =         0.00000000
  ---------------------------------------------------
  free energy    TOTEN  =      -432.44984872 eV

  energy without entropy =     -432.62715482  energy(sigma->0) =     -432.50895075


--------------------------------------------------------------------------------------------------------




----------------------------------------- Iteration    1(   6)  ---------------------------------------


    POTLOK:  cpu time    0.5279: real time    0.5271
    SETDIJ:  cpu time    0.0930: real time    0.0926
     EDDAV:  cpu time  153.8106: real time  153.6872
       DOS:  cpu time    0.0040: real time    0.0042
    CHARGE:  cpu time    8.5057: real time    8.4986
    MIXING:  cpu time    0.0110: real time    0.0110
    --------------------------------------------
      LOOP:  cpu time  162.9522: real time  162.8215

 eigenvalue-minimisations  : 10912
 total energy-change (2. order) : 0.3157389E+02  (-0.6207708E+02)
 number of electron    1024.0000694 magnetization      51.8454540
 augmentation part      631.0568816 magnetization      45.9773032

 Broyden mixing:
  rms(total) = 0.51323E+01    rms(broyden)= 0.51319E+01
  rms(prec ) = 0.64471E+01
  weight for this iteration     100.00

 eigenvalues of (default mixing * dielectric matrix)
  average eigenvalue GAMMA=   0.5523
  0.5523

 Free energy of the ion-electron system (eV)
  ---------------------------------------------------
  alpha Z        PSCENC =      9415.99145534
  Ewald energy   TEWEN  =   -151163.59208212
  -Hartree energ DENC   =    -59958.71777697
  -exchange      EXHF   =         0.00000000
  -V(xc)+E(xc)   XCENC  =      5583.80308017
  PAW double counting   =    167696.13225186  -176290.50867103
  entropy T*S    EENTRO =        -0.39111305
  eigenvalues    EBANDS =    -19700.24526783
  atomic energy  EATOM  =    224016.65216645
  Solvation  Ediel_sol  =         0.00000000
  ---------------------------------------------------
  free energy    TOTEN  =      -400.87595719 eV

  energy without entropy =     -400.48484414  energy(sigma->0) =     -400.74558617


--------------------------------------------------------------------------------------------------------




----------------------------------------- Iteration    1(   7)  ---------------------------------------


    POTLOK:  cpu time    0.5199: real time    0.5196
    SETDIJ:  cpu time    0.0940: real time    0.0927
     EDDAV:  cpu time  152.5488: real time  152.4280
       DOS:  cpu time    0.0040: real time    0.0040
    CHARGE:  cpu time    8.7477: real time    8.7426
    MIXING:  cpu time    0.0120: real time    0.0115
    --------------------------------------------
      LOOP:  cpu time  161.9264: real time  161.7992

 eigenvalue-minimisations  : 10808
 total energy-change (2. order) : 0.3133324E+02  (-0.1262711E+02)
 number of electron    1024.0000679 magnetization      46.9876865
 augmentation part      606.2371371 magnetization      38.6216535

 Broyden mixing:
  rms(total) = 0.60779E+00    rms(broyden)= 0.60736E+00
  rms(prec ) = 0.72977E+00
  weight for this iteration     100.00

 eigenvalues of (default mixing * dielectric matrix)
  average eigenvalue GAMMA=   0.7442
  0.9122  0.5761

 Free energy of the ion-electron system (eV)
  ---------------------------------------------------
  alpha Z        PSCENC =      9415.99145534
  Ewald energy   TEWEN  =   -151163.59208212
  -Hartree energ DENC   =    -61144.24801094
  -exchange      EXHF   =         0.00000000
  -V(xc)+E(xc)   XCENC  =      5628.46770933
  PAW double counting   =    170220.45211800  -179100.48725742
  entropy T*S    EENTRO =        -0.02653624
  eigenvalues    EBANDS =    -18242.75227528
  atomic energy  EATOM  =    224016.65216645
  Solvation  Ediel_sol  =         0.00000000
  ---------------------------------------------------
  free energy    TOTEN  =      -369.54271287 eV

  energy without entropy =     -369.51617663  energy(sigma->0) =     -369.53386746


--------------------------------------------------------------------------------------------------------




----------------------------------------- Iteration    1(   8)  ---------------------------------------


    POTLOK:  cpu time    0.5129: real time    0.5138
    SETDIJ:  cpu time    0.0930: real time    0.0917
     EDDAV:  cpu time  155.4224: real time  155.3113
       DOS:  cpu time    0.0050: real time    0.0042
    CHARGE:  cpu time    8.8807: real time    8.8736
    MIXING:  cpu time    0.0130: real time    0.0124
    --------------------------------------------
      LOOP:  cpu time  164.9279: real time  164.8077

 eigenvalue-minimisations  : 11080
 total energy-change (2. order) :-0.3758695E-01  (-0.1347989E+00)
 number of electron    1024.0000678 magnetization      44.0245433
 augmentation part      605.8716141 magnetization      36.9711192

 Broyden mixing:
  rms(total) = 0.30853E+00    rms(broyden)= 0.30849E+00
  rms(prec ) = 0.40987E+00
  weight for this iteration     100.00

 eigenvalues of (default mixing * dielectric matrix)
  average eigenvalue GAMMA=   1.1311
  0.5892  0.8762  1.9280

 Free energy of the ion-electron system (eV)
  ---------------------------------------------------
  alpha Z        PSCENC =      9415.99145534
  Ewald energy   TEWEN  =   -151163.59208212
  -Hartree energ DENC   =    -61017.98727078
  -exchange      EXHF   =         0.00000000
  -V(xc)+E(xc)   XCENC  =      5624.73999327
  PAW double counting   =    170752.58088112  -179728.32837262
  entropy T*S    EENTRO =        -0.02435768
  eigenvalues    EBANDS =    -18269.61271281
  atomic energy  EATOM  =    224016.65216645
  Solvation  Ediel_sol  =         0.00000000
  ---------------------------------------------------
  free energy    TOTEN  =      -369.58029982 eV

  energy without entropy =     -369.55594214  energy(sigma->0) =     -369.57218059


--------------------------------------------------------------------------------------------------------




----------------------------------------- Iteration    1(   9)  ---------------------------------------


    POTLOK:  cpu time    0.5209: real time    0.5208
    SETDIJ:  cpu time    0.0930: real time    0.0926
     EDDAV:  cpu time  160.9035: real time  160.7812
       DOS:  cpu time    0.0040: real time    0.0042
    CHARGE:  cpu time    8.4897: real time    8.4828
    MIXING:  cpu time    0.0130: real time    0.0131
    --------------------------------------------
      LOOP:  cpu time  170.0242: real time  169.8954

 eigenvalue-minimisations  : 11600
 total energy-change (2. order) : 0.1482521E+00  (-0.2461943E-01)
 number of electron    1024.0000678 magnetization      44.2699433
 augmentation part      606.6586478 magnetization      38.0710327

 Broyden mixing:
  rms(total) = 0.79135E-01    rms(broyden)= 0.79120E-01
  rms(prec ) = 0.81737E-01
  weight for this iteration     100.00

 eigenvalues of (default mixing * dielectric matrix)
  average eigenvalue GAMMA=   1.0868
  2.1951  0.9292  0.6064  0.6165

 Free energy of the ion-electron system (eV)
  ---------------------------------------------------
  alpha Z        PSCENC =      9415.99145534
  Ewald energy   TEWEN  =   -151163.59208212
  -Hartree energ DENC   =    -60864.53307890
  -exchange      EXHF   =         0.00000000
  -V(xc)+E(xc)   XCENC  =      5619.84934285
  PAW double counting   =    171192.10498062  -180240.86280183
  entropy T*S    EENTRO =        -0.03518702
  eigenvalues    EBANDS =    -18345.00684313
  atomic energy  EATOM  =    224016.65216645
  Solvation  Ediel_sol  =         0.00000000
  ---------------------------------------------------
  free energy    TOTEN  =      -369.43204774 eV

  energy without entropy =     -369.39686072  energy(sigma->0) =     -369.42031873


--------------------------------------------------------------------------------------------------------




----------------------------------------- Iteration    1(  10)  ---------------------------------------


    POTLOK:  cpu time    0.5139: real time    0.5148
    SETDIJ:  cpu time    0.0940: real time    0.0929
     EDDAV:  cpu time  162.6023: real time  162.4858
       DOS:  cpu time    0.0040: real time    0.0042
    CHARGE:  cpu time    8.5227: real time    8.5160
    MIXING:  cpu time    0.0140: real time    0.0140
    --------------------------------------------
      LOOP:  cpu time  171.7529: real time  171.6285

 eigenvalue-minimisations  : 11736
 total energy-change (2. order) :-0.5962264E-02  (-0.1431545E-02)
 number of electron    1024.0000678 magnetization      44.8650901
 augmentation part      606.6473425 magnetization      38.5914105

 Broyden mixing:
  rms(total) = 0.33932E-01    rms(broyden)= 0.33927E-01
  rms(prec ) = 0.35127E-01
  weight for this iteration     100.00

 eigenvalues of (default mixing * dielectric matrix)
  average eigenvalue GAMMA=   1.2364
  2.3113  1.6724  0.9880  0.6052  0.6052

 Free energy of the ion-electron system (eV)
  ---------------------------------------------------
  alpha Z        PSCENC =      9415.99145534
  Ewald energy   TEWEN  =   -151163.59208212
  -Hartree energ DENC   =    -60856.68794895
  -exchange      EXHF   =         0.00000000
  -V(xc)+E(xc)   XCENC  =      5619.64426260
  PAW double counting   =    171277.96434111  -180332.61189969
  entropy T*S    EENTRO =        -0.03469311
  eigenvalues    EBANDS =    -18346.76361163
  atomic energy  EATOM  =    224016.65216645
  Solvation  Ediel_sol  =         0.00000000
  ---------------------------------------------------
  free energy    TOTEN  =      -369.43801000 eV

  energy without entropy =     -369.40331689  energy(sigma->0) =     -369.42644563


--------------------------------------------------------------------------------------------------------




----------------------------------------- Iteration    1(  11)  ---------------------------------------


    POTLOK:  cpu time    0.5049: real time    0.5052
    SETDIJ:  cpu time    0.0920: real time    0.0915
     EDDAV:  cpu time  154.4345: real time  154.3140
       DOS:  cpu time    0.0050: real time    0.0053
    CHARGE:  cpu time    8.6097: real time    8.6023
    MIXING:  cpu time    0.0140: real time    0.0149
    --------------------------------------------
      LOOP:  cpu time  163.6601: real time  163.5339

 eigenvalue-minimisations  : 11048
 total energy-change (2. order) :-0.4096406E-02  (-0.7146587E-03)
 number of electron    1024.0000678 magnetization      44.8657859
 augmentation part      606.5664869 magnetization      38.4299367

 Broyden mixing:
  rms(total) = 0.10960E-01    rms(broyden)= 0.10954E-01
  rms(prec ) = 0.13886E-01
  weight for this iteration     100.00

 eigenvalues of (default mixing * dielectric matrix)
  average eigenvalue GAMMA=   1.1777
  2.3890  1.7367  1.0022  0.7060  0.5870  0.6452

 Free energy of the ion-electron system (eV)
  ---------------------------------------------------
  alpha Z        PSCENC =      9415.99145534
  Ewald energy   TEWEN  =   -151163.59208212
  -Hartree energ DENC   =    -60858.32024596
  -exchange      EXHF   =         0.00000000
  -V(xc)+E(xc)   XCENC  =      5619.69053038
  PAW double counting   =    171385.50820572  -180442.28155005
  entropy T*S    EENTRO =        -0.03391317
  eigenvalues    EBANDS =    -18343.05667301
  atomic energy  EATOM  =    224016.65216645
  Solvation  Ediel_sol  =         0.00000000
  ---------------------------------------------------
  free energy    TOTEN  =      -369.44210641 eV

  energy without entropy =     -369.40819324  energy(sigma->0) =     -369.43080202


--------------------------------------------------------------------------------------------------------




----------------------------------------- Iteration    1(  12)  ---------------------------------------


    POTLOK:  cpu time    0.5129: real time    0.5135
    SETDIJ:  cpu time    0.0930: real time    0.0917
     EDDAV:  cpu time  152.0399: real time  151.9220
       DOS:  cpu time    0.0050: real time    0.0048
    CHARGE:  cpu time    8.6297: real time    8.6232
    MIXING:  cpu time    0.0170: real time    0.0162
    --------------------------------------------
      LOOP:  cpu time  161.2985: real time  161.1722

 eigenvalue-minimisations  : 10840
 total energy-change (2. order) :-0.3185475E-04  (-0.7609746E-04)
 number of electron    1024.0000678 magnetization      44.8555756
 augmentation part      606.6133071 magnetization      38.4174520

 Broyden mixing:
  rms(total) = 0.25890E-02    rms(broyden)= 0.25840E-02
  rms(prec ) = 0.27375E-02
  weight for this iteration     100.00

 eigenvalues of (default mixing * dielectric matrix)
  average eigenvalue GAMMA=   1.1822
  2.4295  1.7149  1.2625  0.9352  0.5896  0.6277  0.7160

 Free energy of the ion-electron system (eV)
  ---------------------------------------------------
  alpha Z        PSCENC =      9415.99145534
  Ewald energy   TEWEN  =   -151163.59208212
  -Hartree energ DENC   =    -60855.35535962
  -exchange      EXHF   =         0.00000000
  -V(xc)+E(xc)   XCENC  =      5619.57604645
  PAW double counting   =    171402.03793750  -180458.68130162
  entropy T*S    EENTRO =        -0.03532007
  eigenvalues    EBANDS =    -18346.03568059
  atomic energy  EATOM  =    224016.65216645
  Solvation  Ediel_sol  =         0.00000000
  ---------------------------------------------------
  free energy    TOTEN  =      -369.44213827 eV

  energy without entropy =     -369.40681820  energy(sigma->0) =     -369.43036491


--------------------------------------------------------------------------------------------------------




----------------------------------------- Iteration    1(  13)  ---------------------------------------


    POTLOK:  cpu time    0.5179: real time    0.5176
    SETDIJ:  cpu time    0.0920: real time    0.0921
     EDDAV:  cpu time  151.4760: real time  151.3618
       DOS:  cpu time    0.0050: real time    0.0053
    CHARGE:  cpu time    8.3277: real time    8.3204
    MIXING:  cpu time    0.0170: real time    0.0170
    --------------------------------------------
      LOOP:  cpu time  160.4366: real time  160.3149

 eigenvalue-minimisations  : 10768
 total energy-change (2. order) :-0.7816328E-05  (-0.3660052E-05)
 number of electron    1024.0000678 magnetization      44.8506158
 augmentation part      606.6227983 magnetization      38.4126986

 Broyden mixing:
  rms(total) = 0.20197E-02    rms(broyden)= 0.20195E-02
  rms(prec ) = 0.26594E-02
  weight for this iteration     100.00

 eigenvalues of (default mixing * dielectric matrix)
  average eigenvalue GAMMA=   1.2298
  2.4370  1.8101  1.8101  1.0210  0.5933  0.6183  0.7746  0.7746

 Free energy of the ion-electron system (eV)
  ---------------------------------------------------
  alpha Z        PSCENC =      9415.99145534
  Ewald energy   TEWEN  =   -151163.59208212
  -Hartree energ DENC   =    -60855.13525459
  -exchange      EXHF   =         0.00000000
  -V(xc)+E(xc)   XCENC  =      5619.56617563
  PAW double counting   =    171412.61595516  -180468.89842119
  entropy T*S    EENTRO =        -0.03558611
  eigenvalues    EBANDS =    -18346.60655466
  atomic energy  EATOM  =    224016.65216645
  Solvation  Ediel_sol  =         0.00000000
  ---------------------------------------------------
  free energy    TOTEN  =      -369.44214608 eV

  energy without entropy =     -369.40655997  energy(sigma->0) =     -369.43028404


--------------------------------------------------------------------------------------------------------




----------------------------------------- Iteration    1(  14)  ---------------------------------------


    POTLOK:  cpu time    0.5149: real time    0.5151
    SETDIJ:  cpu time    0.0920: real time    0.0922
     EDDAV:  cpu time  134.1076: real time  133.9991
       DOS:  cpu time    0.0050: real time    0.0053
    CHARGE:  cpu time    8.4497: real time    8.4431
    MIXING:  cpu time    0.0180: real time    0.0183
    --------------------------------------------
      LOOP:  cpu time  143.1882: real time  143.0737

 eigenvalue-minimisations  :  9168
 total energy-change (2. order) : 0.2083110E-04  (-0.8983440E-06)
 number of electron    1024.0000678 magnetization      44.8504604
 augmentation part      606.6176111 magnetization      38.4129296

 Broyden mixing:
  rms(total) = 0.64767E-03    rms(broyden)= 0.64762E-03
  rms(prec ) = 0.82874E-03
  weight for this iteration     100.00

 eigenvalues of (default mixing * dielectric matrix)
  average eigenvalue GAMMA=   1.2654
  2.5342  2.4415  1.7284  1.1079  0.8507  0.8507  0.5915  0.6239  0.6594

 Free energy of the ion-electron system (eV)
  ---------------------------------------------------
  alpha Z        PSCENC =      9415.99145534
  Ewald energy   TEWEN  =   -151163.59208212
  -Hartree energ DENC   =    -60855.79841820
  -exchange      EXHF   =         0.00000000
  -V(xc)+E(xc)   XCENC  =      5619.59061841
  PAW double counting   =    171422.16557004  -180478.13157540
  entropy T*S    EENTRO =        -0.03555399
  eigenvalues    EBANDS =    -18346.28430579
  atomic energy  EATOM  =    224016.65216645
  Solvation  Ediel_sol  =         0.00000000
  ---------------------------------------------------
  free energy    TOTEN  =      -369.44212525 eV

  energy without entropy =     -369.40657126  energy(sigma->0) =     -369.43027392


--------------------------------------------------------------------------------------------------------




----------------------------------------- Iteration    1(  15)  ---------------------------------------


    POTLOK:  cpu time    0.5189: real time    0.5188
    SETDIJ:  cpu time    0.0920: real time    0.0921
     EDDAV:  cpu time   95.8004: real time   95.7270
       DOS:  cpu time    0.0050: real time    0.0054
    CHARGE:  cpu time    8.6487: real time    8.6406
    MIXING:  cpu time    0.0200: real time    0.0197
    --------------------------------------------
      LOOP:  cpu time  105.0860: real time  105.0042

 eigenvalue-minimisations  :  5632
 total energy-change (2. order) : 0.6803544E-05  (-0.1482815E-06)
 number of electron    1024.0000678 magnetization      44.8510744
 augmentation part      606.6150987 magnetization      38.4135567

 Broyden mixing:
  rms(total) = 0.12725E-03    rms(broyden)= 0.12709E-03
  rms(prec ) = 0.12829E-03
  weight for this iteration     100.00

 eigenvalues of (default mixing * dielectric matrix)
  average eigenvalue GAMMA=   1.2416
  2.6281  2.4398  1.6921  1.2303  0.9050  0.9050  0.7613  0.5915  0.6235  0.6392

 Free energy of the ion-electron system (eV)
  ---------------------------------------------------
  alpha Z        PSCENC =      9415.99145534
  Ewald energy   TEWEN  =   -151163.59208212
  -Hartree energ DENC   =    -60856.04611714
  -exchange      EXHF   =         0.00000000
  -V(xc)+E(xc)   XCENC  =      5619.59997176
  PAW double counting   =    171424.81139035  -180480.68862816
  entropy T*S    EENTRO =        -0.03549392
  eigenvalues    EBANDS =    -18346.13478102
  atomic energy  EATOM  =    224016.65216645
  Solvation  Ediel_sol  =         0.00000000
  ---------------------------------------------------
  free energy    TOTEN  =      -369.44211845 eV

  energy without entropy =     -369.40662452  energy(sigma->0) =     -369.43028714


--------------------------------------------------------------------------------------------------------




----------------------------------------- Iteration    1(  16)  ---------------------------------------


    POTLOK:  cpu time    0.5199: real time    0.5205
    SETDIJ:  cpu time    0.0940: real time    0.0924
     EDDAV:  cpu time   94.6416: real time   94.5750
       DOS:  cpu time    0.0050: real time    0.0055
    --------------------------------------------
      LOOP:  cpu time   95.2605: real time   95.7199

 eigenvalue-minimisations  :  5464
 total energy-change (2. order) :-0.6877235E-07  (-0.2126571E-07)
 number of electron    1024.0000678 magnetization      44.8510744
 augmentation part      606.6150987 magnetization      38.4135567

 Free energy of the ion-electron system (eV)
  ---------------------------------------------------
  alpha Z        PSCENC =      9415.99145534
  Ewald energy   TEWEN  =   -151163.59208212
  -Hartree energ DENC   =    -60856.05053160
  -exchange      EXHF   =         0.00000000
  -V(xc)+E(xc)   XCENC  =      5619.60037202
  PAW double counting   =    171424.72642805  -180480.60101823
  entropy T*S    EENTRO =        -0.03547846
  eigenvalues    EBANDS =    -18346.13342997
  atomic energy  EATOM  =    224016.65216645
  Solvation  Ediel_sol  =         0.00000000
  ---------------------------------------------------
  free energy    TOTEN  =      -369.44211852 eV

  energy without entropy =     -369.40664005  energy(sigma->0) =     -369.43029236


--------------------------------------------------------------------------------------------------------




 average (electrostatic) potential at core
  the test charge radii are     0.8614
  (the norm of the test charge is              1.0000)
       1 -79.9239       2 -79.9239       3 -79.9239       4 -79.9239       5 -79.9239
       6 -79.9239       7 -79.9239       8 -79.9239       9 -79.9239      10 -79.9239
      11 -79.9239      12 -79.9239      13 -79.9239      14 -79.9239      15 -79.9239
      16 -79.9239      17 -79.9239      18 -79.9239      19 -79.9239      20 -79.9239
      21 -79.9239      22 -79.9239      23 -79.9239      24 -79.9239      25 -79.9239
      26 -79.9239      27 -79.9239      28 -79.9239      29 -79.9239      30 -79.9239
      31 -79.9239      32 -79.9239      33 -79.9239      34 -79.9239      35 -79.9239
      36 -79.9239      37 -79.9239      38 -79.9239      39 -79.9239      40 -79.9239
      41 -79.9239      42 -79.9239      43 -79.9239      44 -79.9239      45 -79.9239
      46 -79.9239      47 -79.9239      48 -79.9239      49 -79.9239      50 -79.9239
      51 -79.9239      52 -79.9239      53 -79.9239      54 -79.9239      55 -79.9239
      56 -79.9239      57 -79.9239      58 -79.9239      59 -79.9239      60 -79.9239
      61 -79.9239      62 -79.9239      63 -79.9239      64 -79.9239
 
 
 
 E-fermi :   7.2663     XC(G=0): -13.4610     alpha+bet :-14.1406


 spin component 1

 k-point     1 :       0.0000    0.0000    0.0000
  band No.  band energies     occupation 
      1     -56.7442      1.00000
      2     -56.7442      1.00000
      3     -56.7442      1.00000
      4     -56.7442      1.00000
      5     -56.7351      1.00000
      6     -56.7351      1.00000
      7     -56.7351      1.00000
      8     -56.7143      1.00000
      9     -56.7143      1.00000
     10     -56.7143      1.00000
     11     -56.7143      1.00000
     12     -56.7143      1.00000
     13     -56.7143      1.00000
     14     -56.7142      1.00000
     15     -56.7142      1.00000
     16     -56.7142      1.00000
     17     -56.7142      1.00000
     18     -56.7142      1.00000
     19     -56.7142      1.00000
     20     -56.7142      1.00000
     21     -56.7142      1.00000
     22     -56.7142      1.00000
     23     -56.7142      1.00000
     24     -56.7142      1.00000
     25     -56.7142      1.00000
     26     -56.7142      1.00000
     27     -56.7142      1.00000
     28     -56.7142      1.00000
     29     -56.7142      1.00000
     30     -56.7142      1.00000
     31     -56.7142      1.00000
     32     -56.6936      1.00000
     33     -56.6936      1.00000
     34     -56.6936      1.00000
     35     -56.6936      1.00000
     36     -56.6936      1.00000
     37     -56.6936      1.00000
     38     -56.6936      1.00000
     39     -56.6936      1.00000
     40     -56.6936      1.00000
     41     -56.6936      1.00000
     42     -56.6936      1.00000
     43     -56.6936      1.00000
     44     -56.6841      1.00000
     45     -56.6841      1.00000
     46     -56.6841      1.00000
     47     -56.6841      1.00000
     48     -56.6841      1.00000
     49     -56.6841      1.00000
     50     -56.6841      1.00000
     51     -56.6841      1.00000
     52     -56.6841      1.00000
     53     -56.6841      1.00000
     54     -56.6841      1.00000
     55     -56.6841      1.00000
     56     -56.6557      1.00000
     57     -56.6557      1.00000
     58     -56.6556      1.00000
     59     -56.6556      1.00000
     60     -56.6556      1.00000
     61     -56.6556      1.00000
     62     -56.6556      1.00000
     63     -56.6556      1.00000
     64     -56.6519      1.00000
     65     -56.6519      1.00000
     66     -56.6519      1.00000
     67     -56.6519      1.00000
     68     -56.6519      1.00000
     69     -56.6519      1.00000
     70     -56.6419      1.00000
     71     -56.6419      1.00000
     72     -56.6419      1.00000
     73     -56.6419      1.00000
     74     -56.6419      1.00000
     75     -56.6419      1.00000
     76     -56.6419      1.00000
     77     -56.6419      1.00000
     78     -56.6419      1.00000
     79     -56.6419      1.00000
     80     -56.6419      1.00000
     81     -56.6419      1.00000
     82     -56.6380      1.00000
     83     -56.6380      1.00000
     84     -56.6380      1.00000
     85     -56.6380      1.00000
     86     -56.6380      1.00000
     87     -56.6380      1.00000
     88     -56.6379      1.00000
     89     -56.6379      1.00000
     90     -56.6379      1.00000
     91     -56.6379      1.00000
     92     -56.6379      1.00000
     93     -56.6379      1.00000
     94     -56.6379      1.00000
     95     -56.6379      1.00000
     96     -56.6379      1.00000
     97     -56.6379      1.00000
     98     -56.6379      1.00000
     99     -56.6379      1.00000
    100     -56.6379      1.00000
    101     -56.6379      1.00000
    102     -56.6379      1.00000
    103     -56.6379      1.00000
    104     -56.6379      1.00000
    105     -56.6379      1.00000
    106     -56.6339      1.00000
    107     -56.6339      1.00000
    108     -56.6339      1.00000
    109     -56.6339      1.00000
    110     -56.6339      1.00000
    111     -56.6339      1.00000
    112     -56.6331      1.00000
    113     -56.6331      1.00000
    114     -56.6331      1.00000
    115     -56.6331      1.00000
    116     -56.6331      1.00000
    117     -56.6331      1.00000
    118     -56.6124      1.00000
    119     -56.6124      1.00000
    120     -56.6124      1.00000
    121     -56.6124      1.00000
    122     -56.6124      1.00000
    123     -56.6124      1.00000
    124     -56.6124      1.00000
    125     -56.6124      1.00000
    126     -56.6124      1.00000
    127     -56.6124      1.00000
    128     -56.6124      1.00000
    129     -56.6124      1.00000
    130     -56.6124      1.00000
    131     -56.6124      1.00000
    132     -56.6124      1.00000
    133     -56.6124      1.00000
    134     -56.6124      1.00000
    135     -56.6124      1.00000
    136     -56.6124      1.00000
    137     -56.6124      1.00000
    138     -56.6124      1.00000
    139     -56.6124      1.00000
    140     -56.6124      1.00000
    141     -56.6124      1.00000
    142     -56.5995      1.00000
    143     -56.5995      1.00000
    144     -56.5995      1.00000
    145     -56.5995      1.00000
    146     -56.5995      1.00000
    147     -56.5995      1.00000
    148     -56.5995      1.00000
    149     -56.5995      1.00000
    150     -56.5995      1.00000
    151     -56.5995      1.00000
    152     -56.5995      1.00000
    153     -56.5995      1.00000
    154     -56.5918      1.00000
    155     -56.5918      1.00000
    156     -56.5918      1.00000
    157     -56.5917      1.00000
    158     -56.5917      1.00000
    159     -56.5917      1.00000
    160     -56.5917      1.00000
    161     -56.5917      1.00000
    162     -56.5916      1.00000
    163     -56.5916      1.00000
    164     -56.5916      1.00000
    165     -56.5916      1.00000
    166     -56.5916      1.00000
    167     -56.5916      1.00000
    168     -56.5916      1.00000
    169     -56.5916      1.00000
    170     -56.5916      1.00000
    171     -56.5916      1.00000
    172     -56.5916      1.00000
    173     -56.5916      1.00000
    174     -56.5787      1.00000
    175     -56.5787      1.00000
    176     -56.5787      1.00000
    177     -56.5787      1.00000
    178     -56.5787      1.00000
    179     -56.5787      1.00000
    180     -56.5786      1.00000
    181     -56.5786      1.00000
    182     -56.5786      1.00000
    183     -56.5786      1.00000
    184     -56.5786      1.00000
    185     -56.5786      1.00000
    186     -56.5786      1.00000
    187     -56.5786      1.00000
    188     -56.5786      1.00000
    189     -56.5786      1.00000
    190     -56.5655      1.00000
    191     -56.5655      1.00000
    192     -56.5655      1.00000
    193      -1.4605      1.00000
    194       0.6976      1.00000
    195       0.6976      1.00000
    196       0.6976      1.00000
    197       0.6976      1.00000
    198       0.6976      1.00000
    199       0.6976      1.00000
    200       0.6976      1.00000
    201       0.6976      1.00000
    202       1.3388      1.00000
    203       1.3388      1.00000
    204       1.3388      1.00000
    205       1.3388      1.00000
    206       1.3388      1.00000
    207       1.3388      1.00000
    208       2.6332      1.00000
    209       2.6333      1.00000
    210       2.6333      1.00000
    211       2.6333      1.00000
    212       2.8353      1.00000
    213       2.8353      1.00000
    214       2.8353      1.00000
    215       3.1836      1.00000
    216       3.1836      1.00000
    217       3.1836      1.00000
    218       3.1836      1.00000
    219       3.1836      1.00000
    220       3.1836      1.00000
    221       3.1836      1.00000
    222       3.1836      1.00000
    223       3.1836      1.00000
    224       3.1836      1.00000
    225       3.1836      1.00000
    226       3.1836      1.00000
    227       3.2616      1.00000
    228       3.2616      1.00000
    229       3.2616      1.00000
    230       3.3466      1.00000
    231       3.3466      1.00000
    232       3.3466      1.00000
    233       3.3466      1.00000
    234       3.3466      1.00000
    235       3.3466      1.00000
    236       3.3466      1.00000
    237       3.3466      1.00000
    238       3.3466      1.00000
    239       3.3466      1.00000
    240       3.3466      1.00000
    241       3.3466      1.00000
    242       3.3467      1.00000
    243       3.3467      1.00000
    244       3.3467      1.00000
    245       3.3467      1.00000
    246       3.3467      1.00000
    247       3.3467      1.00000
    248       3.3467      1.00000
    249       3.3467      1.00000
    250       3.3467      1.00000
    251       3.3467      1.00000
    252       3.3467      1.00000
    253       3.3467      1.00000
    254       3.6691      1.00000
    255       3.6691      1.00000
    256       3.6691      1.00000
    257       3.6691      1.00000
    258       3.6691      1.00000
    259       3.6691      1.00000
    260       3.9618      1.00000
    261       3.9618      1.00000
    262       3.9618      1.00000
    263       3.9618      1.00000
    264       3.9618      1.00000
    265       3.9618      1.00000
    266       3.9618      1.00000
    267       3.9618      1.00000
    268       3.9618      1.00000
    269       3.9618      1.00000
    270       3.9618      1.00000
    271       3.9618      1.00000
    272       3.9618      1.00000
    273       3.9618      1.00000
    274       3.9618      1.00000
    275       3.9618      1.00000
    276       3.9618      1.00000
    277       3.9618      1.00000
    278       3.9618      1.00000
    279       3.9618      1.00000
    280       3.9618      1.00000
    281       3.9618      1.00000
    282       3.9618      1.00000
    283       3.9618      1.00000
    284       4.0486      1.00000
    285       4.0486      1.00000
    286       4.0486      1.00000
    287       4.0486      1.00000
    288       4.0486      1.00000
    289       4.0486      1.00000
    290       4.3089      1.00000
    291       4.3089      1.00000
    292       4.3089      1.00000
    293       4.3089      1.00000
    294       4.3089      1.00000
    295       4.3089      1.00000
    296       4.3089      1.00000
    297       4.3089      1.00000
    298       4.3089      1.00000
    299       4.3089      1.00000
    300       4.3089      1.00000
    301       4.3089      1.00000
    302       4.3099      1.00000
    303       4.3099      1.00000
    304       4.3099      1.00000
    305       4.3099      1.00000
    306       4.3099      1.00000
    307       4.3099      1.00000
    308       4.3099      1.00000
    309       4.3099      1.00000
    310       4.3099      1.00000
    311       4.3099      1.00000
    312       4.3099      1.00000
    313       4.3099      1.00000
    314       4.6050      1.00000
    315       4.6050      1.00000
    316       4.6050      1.00000
    317       4.6050      1.00000
    318       4.6050      1.00000
    319       4.6050      1.00000
    320       4.6050      1.00000
    321       4.6050      1.00000
    322       4.6059      1.00000
    323       4.6059      1.00000
[...]
      7.155750  3.577875  3.577875     0.023082    0.078441    0.094548  
      8.944688  5.366812  3.577875     0.023082    0.078441    0.094548  
      5.366812  0.000000  5.366812     0.023082    0.078441    0.094548  
      7.155750  1.788938  5.366812     0.023082    0.078441    0.094548  
      8.944688  3.577875  5.366812     0.023082    0.078441    0.094548  
     10.733625  5.366812  5.366812     0.023082    0.078441    0.094548  
      0.000000  1.788938  1.788938     0.023082    0.078441    0.094548  
      1.788938  3.577875  1.788938     0.023082    0.078441    0.094548  
      3.577875  5.366812  1.788938     0.023082    0.078441    0.094548  
      5.366812  7.155750  1.788938     0.023082    0.078441    0.094548  
      1.788938  1.788938  3.577875     0.023082    0.078441    0.094548  
      3.577875  3.577875  3.577875     0.023082    0.078441    0.094548  
      5.366812  5.366812  3.577875     0.023082    0.078441    0.094548  
      7.155750  7.155750  3.577875     0.023082    0.078441    0.094548  
      3.577875  1.788938  5.366812     0.023082    0.078441    0.094548  
      5.366812  3.577875  5.366812     0.023082    0.078441    0.094548  
      7.155750  5.366812  5.366812     0.023082    0.078441    0.094548  
      8.944688  7.155750  5.366812     0.023082    0.078441    0.094548  
      5.366812  1.788938  7.155750     0.023082    0.078441    0.094548  
      7.155750  3.577875  7.155750     0.023082    0.078441    0.094548  
      8.944688  5.366812  7.155750     0.023082    0.078441    0.094548  
     10.733625  7.155750  7.155750     0.023082    0.078441    0.094548  
      0.000000  3.577875  3.577875     0.023082    0.078441    0.094548  
      1.788938  5.366812  3.577875     0.023082    0.078441    0.094548  
      3.577875  7.155750  3.577875     0.023082    0.078441    0.094548  
      5.366812  8.944688  3.577875     0.023082    0.078441    0.094548  
      1.788938  3.577875  5.366812     0.023082    0.078441    0.094548  
      3.577875  5.366812  5.366812     0.023082    0.078441    0.094548  
      5.366812  7.155750  5.366812     0.023082    0.078441    0.094548  
      7.155750  8.944688  5.366812     0.023082    0.078441    0.094548  
      3.577875  3.577875  7.155750     0.023082    0.078441    0.094548  
      5.366812  5.366812  7.155750     0.023082    0.078441    0.094548  
      7.155750  7.155750  7.155750     0.023082    0.078441    0.094548  
      8.944688  8.944688  7.155750     0.023082    0.078441    0.094548  
      5.366812  3.577875  8.944688     0.023082    0.078441    0.094548  
      7.155750  5.366812  8.944688     0.023082    0.078441    0.094548  
      8.944688  7.155750  8.944688     0.023082    0.078441    0.094548  
     10.733625  8.944688  8.944688     0.023082    0.078441    0.094548  
      0.000000  5.366812  5.366812     0.023082    0.078441    0.094548  
      1.788938  7.155750  5.366812     0.023082    0.078441    0.094548  
      3.577875  8.944688  5.366812     0.023082    0.078441    0.094548  
      5.366812 10.733625  5.366812     0.023082    0.078441    0.094548  
      1.788938  5.366812  7.155750     0.023082    0.078441    0.094548  
      3.577875  7.155750  7.155750     0.023082    0.078441    0.094548  
      5.366812  8.944688  7.155750     0.023082    0.078441    0.094548  
      7.155750 10.733625  7.155750     0.023082    0.078441    0.094548  
      3.577875  5.366812  8.944688     0.023082    0.078441    0.094548  
      5.366812  7.155750  8.944688     0.023082    0.078441    0.094548  
      7.155750  8.944688  8.944688     0.023082    0.078441    0.094548  
      8.944688 10.733625  8.944688     0.023082    0.078441    0.094548  
      5.366812  5.366812 10.733625     0.023082    0.078441    0.094548  
      7.155750  7.155750 10.733625     0.023082    0.078441    0.094548  
      8.944688  8.944688 10.733625     0.023082    0.078441    0.094548  
     10.733625 10.733625 10.733625     0.023082    0.078441    0.094548  
 
 192 f/i=    0.000000 THz     0.000003 2PiTHz    0.000014 cm-1     0.000002 meV
             X         Y         Z           dx          dy          dz
      0.000000  0.000000  0.000000    -0.119888    0.035382   -0.000086  
      1.788938  1.788938  0.000000    -0.119888    0.035382   -0.000086  
      3.577875  3.577875  0.000000    -0.119888    0.035382   -0.000086  
      5.366812  5.366812  0.000000    -0.119888    0.035382   -0.000086  
      1.788938  0.000000  1.788938    -0.119888    0.035382   -0.000086  
      3.577875  1.788938  1.788938    -0.119888    0.035382   -0.000086  
      5.366812  3.577875  1.788938    -0.119888    0.035382   -0.000086  
      7.155750  5.366812  1.788938    -0.119888    0.035382   -0.000086  
      3.577875  0.000000  3.577875    -0.119888    0.035382   -0.000086  
      5.366812  1.788938  3.577875    -0.119888    0.035382   -0.000086  
      7.155750  3.577875  3.577875    -0.119888    0.035382   -0.000086  
      8.944688  5.366812  3.577875    -0.119888    0.035382   -0.000086  
      5.366812  0.000000  5.366812    -0.119888    0.035382   -0.000086  
      7.155750  1.788938  5.366812    -0.119888    0.035382   -0.000086  
      8.944688  3.577875  5.366812    -0.119888    0.035382   -0.000086  
     10.733625  5.366812  5.366812    -0.119888    0.035382   -0.000086  
      0.000000  1.788938  1.788938    -0.119888    0.035382   -0.000086  
      1.788938  3.577875  1.788938    -0.119888    0.035382   -0.000086  
      3.577875  5.366812  1.788938    -0.119888    0.035382   -0.000086  
      5.366812  7.155750  1.788938    -0.119888    0.035382   -0.000086  
      1.788938  1.788938  3.577875    -0.119888    0.035382   -0.000086  
      3.577875  3.577875  3.577875    -0.119888    0.035382   -0.000086  
      5.366812  5.366812  3.577875    -0.119888    0.035382   -0.000086  
      7.155750  7.155750  3.577875    -0.119888    0.035382   -0.000086  
      3.577875  1.788938  5.366812    -0.119888    0.035382   -0.000086  
      5.366812  3.577875  5.366812    -0.119888    0.035382   -0.000086  
      7.155750  5.366812  5.366812    -0.119888    0.035382   -0.000086  
      8.944688  7.155750  5.366812    -0.119888    0.035382   -0.000086  
      5.366812  1.788938  7.155750    -0.119888    0.035382   -0.000086  
      7.155750  3.577875  7.155750    -0.119888    0.035382   -0.000086  
      8.944688  5.366812  7.155750    -0.119888    0.035382   -0.000086  
     10.733625  7.155750  7.155750    -0.119888    0.035382   -0.000086  
      0.000000  3.577875  3.577875    -0.119888    0.035382   -0.000086  
      1.788938  5.366812  3.577875    -0.119888    0.035382   -0.000086  
      3.577875  7.155750  3.577875    -0.119888    0.035382   -0.000086  
      5.366812  8.944688  3.577875    -0.119888    0.035382   -0.000086  
      1.788938  3.577875  5.366812    -0.119888    0.035382   -0.000086  
      3.577875  5.366812  5.366812    -0.119888    0.035382   -0.000086  
      5.366812  7.155750  5.366812    -0.119888    0.035382   -0.000086  
      7.155750  8.944688  5.366812    -0.119888    0.035382   -0.000086  
      3.577875  3.577875  7.155750    -0.119888    0.035382   -0.000086  
      5.366812  5.366812  7.155750    -0.119888    0.035382   -0.000086  
      7.155750  7.155750  7.155750    -0.119888    0.035382   -0.000086  
      8.944688  8.944688  7.155750    -0.119888    0.035382   -0.000086  
      5.366812  3.577875  8.944688    -0.119888    0.035382   -0.000086  
      7.155750  5.366812  8.944688    -0.119888    0.035382   -0.000086  
      8.944688  7.155750  8.944688    -0.119888    0.035382   -0.000086  
     10.733625  8.944688  8.944688    -0.119888    0.035382   -0.000086  
      0.000000  5.366812  5.366812    -0.119888    0.035382   -0.000086  
      1.788938  7.155750  5.366812    -0.119888    0.035382   -0.000086  
      3.577875  8.944688  5.366812    -0.119888    0.035382   -0.000086  
      5.366812 10.733625  5.366812    -0.119888    0.035382   -0.000086  
      1.788938  5.366812  7.155750    -0.119888    0.035382   -0.000086  
      3.577875  7.155750  7.155750    -0.119888    0.035382   -0.000086  
      5.366812  8.944688  7.155750    -0.119888    0.035382   -0.000086  
      7.155750 10.733625  7.155750    -0.119888    0.035382   -0.000086  
      3.577875  5.366812  8.944688    -0.119888    0.035382   -0.000086  
      5.366812  7.155750  8.944688    -0.119888    0.035382   -0.000086  
      7.155750  8.944688  8.944688    -0.119888    0.035382   -0.000086  
      8.944688 10.733625  8.944688    -0.119888    0.035382   -0.000086  
      5.366812  5.366812 10.733625    -0.119888    0.035382   -0.000086  
      7.155750  7.155750 10.733625    -0.119888    0.035382   -0.000086  
      8.944688  8.944688 10.733625    -0.119888    0.035382   -0.000086  
     10.733625 10.733625 10.733625    -0.119888    0.035382   -0.000086  
 

 ELASTIC MODULI CONTR FROM IONIC RELAXATION (kBar)
 Direction    XX          YY          ZZ          XY          YZ          ZX
 --------------------------------------------------------------------------------
 XX           0.0000      0.0000     -0.0000     -0.0000     -0.0000     -0.0000
 YY           0.0000      0.0000      0.0000      0.0000     -0.0000     -0.0000
 ZZ          -0.0000      0.0000      0.0000      0.0000      0.0000      0.0000
 XY          -0.0000      0.0000      0.0000      0.0000      0.0000      0.0000
 YZ          -0.0000     -0.0000      0.0000      0.0000     -0.0000      0.0000
 ZX          -0.0000     -0.0000      0.0000      0.0000      0.0000      0.0000
 --------------------------------------------------------------------------------



--------------------------------------------------------------------------------------------------------


  LATTYP: Found a face centered cubic cell.
 ALAT       =    14.3115000000
  
  Lattice vectors:
  
 A1 = (   0.0000000000,   7.1557500000,   7.1557500000)
 A2 = (   7.1557500000,   0.0000000000,   7.1557500000)
 A3 = (   7.1557500000,   7.1557500000,   0.0000000000)


Analysis of symmetry for initial positions (statically):
=====================================================================
 Subroutine PRICEL returns following result:
 
  LATTYP: Found a face centered cubic cell.
 ALAT       =     3.5778750000
  
  Lattice vectors:
  
 A1 = (   0.0000000000,   1.7889375000,   1.7889375000)
 A2 = (   1.7889375000,   0.0000000000,   1.7889375000)
 A3 = (   1.7889375000,   1.7889375000,   0.0000000000)
 
  64 primitive cells build up your supercell.
 

 Routine SETGRP: Setting up the symmetry group for a 
 face centered cubic supercell.


 Subroutine GETGRP returns: Found 48 space group operations
 (whereof 48 operations were pure point group operations)
 out of a pool of 48 trial point group operations.


The static configuration has the point symmetry O_h .


Analysis of symmetry for dynamics (positions and initial velocities):
=====================================================================
 Subroutine PRICEL returns following result:
 
  LATTYP: Found a face centered cubic cell.
 ALAT       =     3.5778750000
  
  Lattice vectors:
  
 A1 = (   0.0000000000,   1.7889375000,   1.7889375000)
 A2 = (   1.7889375000,   0.0000000000,   1.7889375000)
 A3 = (   1.7889375000,   1.7889375000,   0.0000000000)
 
  64 primitive cells build up your supercell.
 

 Routine SETGRP: Setting up the symmetry group for a 
 face centered cubic supercell.


 Subroutine GETGRP returns: Found 48 space group operations
 (whereof 48 operations were pure point group operations)
 out of a pool of 48 trial point group operations.


The dynamic configuration has the point symmetry O_h .


Analysis of structural, dynamic, and magnetic symmetry:
=====================================================================
 Subroutine PRICEL returns following result:
 
  LATTYP: Found a face centered cubic cell.
 ALAT       =     3.5778750000
  
  Lattice vectors:
  
 A1 = (   0.0000000000,   1.7889375000,   1.7889375000)
 A2 = (   1.7889375000,   0.0000000000,   1.7889375000)
 A3 = (   1.7889375000,   1.7889375000,   0.0000000000)
 
  64 primitive cells build up your supercell.
 

 Routine SETGRP: Setting up the symmetry group for a 
 face centered cubic supercell.


 Subroutine GETGRP returns: Found 48 space group operations
 (whereof 48 operations were pure point group operations)
 out of a pool of 48 trial point group operations.


The magnetic configuration has the point symmetry O_h .


 Subroutine INISYM returns: Found 48 space group operations
 (whereof 48 operations are pure point group operations),
 and found    64 'primitive' translations

 
 KPOINTS: Zr 15x15x15                             

Automatic generation of k-mesh.
Space group operators:
 irot       det(A)        alpha          n_x          n_y          n_z        tau_x        tau_y        tau_z
    1     1.000000     0.000000     1.000000     0.000000     0.000000     0.000000     0.000000     0.000000
    2    -1.000000     0.000000     1.000000     0.000000     0.000000     0.000000     0.000000     0.000000
    3     1.000000   120.000000    -0.577350    -0.577350    -0.577350     0.000000     0.000000     0.000000
    4    -1.000000   120.000000    -0.577350    -0.577350    -0.577350     0.000000     0.000000     0.000000
    5     1.000000   120.000000     0.577350     0.577350     0.577350     0.000000     0.000000     0.000000
    6    -1.000000   120.000000     0.577350     0.577350     0.577350     0.000000     0.000000     0.000000
    7     1.000000    90.000000     0.000000     0.000000    -1.000000     0.000000     0.000000     0.000000
    8    -1.000000    90.000000     0.000000     0.000000    -1.000000     0.000000     0.000000     0.000000
    9     1.000000   180.000000     0.000000     0.707107     0.707107     0.000000     0.000000     0.000000
   10    -1.000000   180.000000     0.000000     0.707107     0.707107     0.000000     0.000000     0.000000
   11     1.000000    90.000000     0.000000     1.000000     0.000000     0.000000     0.000000     0.000000
   12    -1.000000    90.000000     0.000000     1.000000     0.000000     0.000000     0.000000     0.000000
   13     1.000000   180.000000     0.000000     0.000000     1.000000     0.000000     0.000000     0.000000
   14    -1.000000   180.000000     0.000000     0.000000     1.000000     0.000000     0.000000     0.000000
   15     1.000000   120.000000    -0.577350     0.577350     0.577350     0.000000     0.000000     0.000000
   16    -1.000000   120.000000    -0.577350     0.577350     0.577350     0.000000     0.000000     0.000000
   17     1.000000   120.000000    -0.577350     0.577350    -0.577350     0.000000     0.000000     0.000000
   18    -1.000000   120.000000    -0.577350     0.577350    -0.577350     0.000000     0.000000     0.000000
   19     1.000000    90.000000     0.000000     0.000000     1.000000     0.000000     0.000000     0.000000
   20    -1.000000    90.000000     0.000000     0.000000     1.000000     0.000000     0.000000     0.000000
   21     1.000000    90.000000    -1.000000     0.000000     0.000000     0.000000     0.000000     0.000000
   22    -1.000000    90.000000    -1.000000     0.000000     0.000000     0.000000     0.000000     0.000000
   23     1.000000   180.000000     0.707107     0.000000     0.707107     0.000000     0.000000     0.000000
   24    -1.000000   180.000000     0.707107     0.000000     0.707107     0.000000     0.000000     0.000000
   25     1.000000   120.000000     0.577350    -0.577350     0.577350     0.000000     0.000000     0.000000
   26    -1.000000   120.000000     0.577350    -0.577350     0.577350     0.000000     0.000000     0.000000
   27     1.000000   120.000000    -0.577350    -0.577350     0.577350     0.000000     0.000000     0.000000
   28    -1.000000   120.000000    -0.577350    -0.577350     0.577350     0.000000     0.000000     0.000000
   29     1.000000   180.000000     1.000000     0.000000     0.000000     0.000000     0.000000     0.000000
   30    -1.000000   180.000000     1.000000     0.000000     0.000000     0.000000     0.000000     0.000000
   31     1.000000    90.000000     0.000000    -1.000000     0.000000     0.000000     0.000000     0.000000
   32    -1.000000    90.000000     0.000000    -1.000000     0.000000     0.000000     0.000000     0.000000
   33     1.000000   180.000000     0.707107     0.707107     0.000000     0.000000     0.000000     0.000000
   34    -1.000000   180.000000     0.707107     0.707107     0.000000     0.000000     0.000000     0.000000
   35     1.000000    90.000000     1.000000     0.000000     0.000000     0.000000     0.000000     0.000000
   36    -1.000000    90.000000     1.000000     0.000000     0.000000     0.000000     0.000000     0.000000
   37     1.000000   120.000000     0.577350    -0.577350    -0.577350     0.000000     0.000000     0.000000
   38    -1.000000   120.000000     0.577350    -0.577350    -0.577350     0.000000     0.000000     0.000000
   39     1.000000   180.000000     0.000000     1.000000     0.000000     0.000000     0.000000     0.000000
   40    -1.000000   180.000000     0.000000     1.000000     0.000000     0.000000     0.000000     0.000000
   41     1.000000   120.000000     0.577350     0.577350    -0.577350     0.000000     0.000000     0.000000
   42    -1.000000   120.000000     0.577350     0.577350    -0.577350     0.000000     0.000000     0.000000
   43     1.000000   180.000000     0.000000    -0.707107     0.707107     0.000000     0.000000     0.000000
   44    -1.000000   180.000000     0.000000    -0.707107     0.707107     0.000000     0.000000     0.000000
   45     1.000000   180.000000     0.707107    -0.707107     0.000000     0.000000     0.000000     0.000000
   46    -1.000000   180.000000     0.707107    -0.707107     0.000000     0.000000     0.000000     0.000000
   47     1.000000   180.000000     0.707107     0.000000    -0.707107     0.000000     0.000000     0.000000
   48    -1.000000   180.000000     0.707107     0.000000    -0.707107     0.000000     0.000000     0.000000
 
 Subroutine IBZKPT returns following result:
 ===========================================
 
 Found      4 irreducible k-points:
 
 Following reciprocal coordinates:
            Coordinates               Weight
  0.000000  0.000000  0.000000      1.000000
  0.333333  0.000000  0.000000      8.000000
  0.333333  0.333333  0.000000      6.000000
 -0.333333  0.333333  0.000000     12.000000
 
 Following cartesian coordinates:
            Coordinates               Weight
  0.000000  0.000000  0.000000      1.000000
 -0.023291  0.023291  0.023291      8.000000
  0.000000  0.000000  0.046583      6.000000
  0.046583 -0.046583  0.000000     12.000000
 
 writing wavefunctions
     LOOP+:  cpu time 4247.2903: real time 4244.2811
    4ORBIT:  cpu time    0.0000: real time    0.0000

 total amount of memory used by VASP on root node   514670. kBytes
========================================================================

   base      :      30000. kBytes
   nonlr-proj:      39547. kBytes
   fftplans  :      16731. kBytes
   grid      :      61532. kBytes
   one-center:       1990. kBytes
   wavefun   :     364870. kBytes
 
  
  
 General timing and accounting informations for this job:
 ========================================================
  
                  Total CPU time used (sec):    10753.485
                            User time (sec):    10692.063
                          System time (sec):       61.423
                         Elapsed time (sec):    10752.612
  
                   Maximum memory used (kb):     1280544.
                   Average memory used (kb):           0.
  
                          Minor page faults:       747960
                          Major page faults:            1
                 Voluntary context switches:         1232
