<?xml version="1.0" encoding="ISO-8859-1"?>
<modeling>
 <generator>
  <i name="program" type="string">vasp </i>
  <i name="version" type="string">5.4.1  </i>
  <i name="subversion" type="string">05Feb16 (build Oct 12 2016 17:31:35) complex                          parallel </i>
  <i name="platform" type="string">IFC91_ompi </i>
  <i name="date" type="string">2020 09 07 </i>
  <i name="time" type="string">23:17:50 </i>
 </generator>
 <incar>
  <i type="string" name="SYSTEM"> phonon of Zr bcc - omiga</i>
  <i type="string" name="PREC">h</i>
  <i type="int" name="ISPIN">     2</i>
  <i type="int" name="IBRION">     6</i>
  <i name="EDIFF">      0.00000100</i>
  <i type="int" name="NSW">     1</i>
  <v name="MAGMOM">      1.00000000      1.00000000      1.00000000      1.00000000      1.00000000      1.00000000      1.00000000      1.00000000      1.00000000      1.00000000      1.00000000      1.00000000      1.00000000      1.00000000      1.00000000      1.00000000      1.00000000      1.00000000      1.00000000      1.00000000
      1.00000000      1.00000000      1.00000000      1.00000000      1.00000000      1.00000000      1.00000000      1.00000000      1.00000000      1.00000000      1.00000000      1.00000000      1.00000000      1.00000000      1.00000000      1.00000000      1.00000000      1.00000000      1.00000000      1.00000000
      1.00000000      1.00000000      1.00000000      1.00000000      1.00000000      1.00000000      1.00000000      1.00000000      1.00000000      1.00000000      1.00000000      1.00000000      1.00000000      1.00000000      1.00000000      1.00000000      1.00000000      1.00000000      1.00000000      1.00000000
      1.00000000      1.00000000      1.00000000      1.00000000</v>
  <i type="string" name="LREAL">Auto</i>
  <i type="int" name="ISMEAR">     1</i>
  <i type="int" name="NWRITE">     0</i>
  <v type="int" name="KPOINT_BSE">    -1     0     0     0</v>
 </incar>
 <kpoints>
  <generation param="Gamma">
   <v type="int" name="divisions">       3        3        3 </v>
   <v name="usershift">      0.00000000       0.00000000       0.00000000 </v>
   <v name="genvec1">      0.33333333       0.00000000       0.00000000 </v>
   <v name="genvec2">      0.00000000       0.33333333       0.00000000 </v>
   <v name="genvec3">      0.00000000       0.00000000       0.33333333 </v>
   <v name="shift">      0.00000000       0.00000000       0.00000000 </v>
  </generation>
  <varray name="kpointlist" >
   <v>       0.00000000       0.00000000       0.00000000 </v>
   <v>       0.33333333       0.00000000       0.00000000 </v>
   <v>       0.33333333       0.33333333       0.00000000 </v>
   <v>      -0.33333333       0.33333333       0.00000000 </v>
  </varray>
  <varray name="weights" >
   <v>       0.03703704 </v>
   <v>       0.29629630 </v>
   <v>       0.22222222 </v>
   <v>       0.44444444 </v>
  </varray>
 </kpoints>
 <parameters>
  <separator name="general" >
   <i type="string" name="SYSTEM">phonon of Zr bcc - omiga</i>
   <i type="logical" name="LCOMPAT"> F  </i>
  </separator>
  <separator name="electronic" >
   <i type="string" name="PREC">h</i>
   <i name="ENMAX">    459.93125000</i>
   <i name="ENAUG">    703.44300000</i>
   <i name="EDIFF">      0.00000100</i>
   <i type="int" name="IALGO">    38</i>
   <i type="int" name="IWAVPR">    11</i>
   <i type="int" name="NBANDS">   648</i>
   <i name="NELECT">   1024.00000000</i>
   <i type="int" name="TURBO">     0</i>
   <i type="int" name="IRESTART">     0</i>
   <i type="int" name="NREBOOT">     0</i>
   <i type="int" name="NMIN">     0</i>
   <i name="EREF">      0.00000000</i>
   <separator name="electronic smearing" >
    <i type="int" name="ISMEAR">     1</i>
    <i name="SIGMA">      0.20000000</i>
    <i name="KSPACING">      0.50000000</i>
    <i type="logical" name="KGAMMA"> T  </i>
   </separator>
   <separator name="electronic projectors" >
    <i type="logical" name="LREAL"> T  </i>
    <v name="ROPT">     -0.00040000</v>
    <i type="int" name="LMAXPAW">  -100</i>
    <i type="int" name="LMAXMIX">     2</i>
    <i type="logical" name="NLSPLINE"> F  </i>
   </separator>
   <separator name="electronic startup" >
    <i type="int" name="ISTART">     0</i>
    <i type="int" name="ICHARG">     2</i>
    <i type="int" name="INIWAV">     1</i>
   </separator>
   <separator name="electronic spin" >
    <i type="int" name="ISPIN">     2</i>
    <i type="logical" name="LNONCOLLINEAR"> F  </i>
    <v name="MAGMOM">      1.00000000      1.00000000      1.00000000      1.00000000      1.00000000      1.00000000      1.00000000      1.00000000      1.00000000      1.00000000      1.00000000      1.00000000      1.00000000      1.00000000      1.00000000      1.00000000      1.00000000      1.00000000      1.00000000      1.00000000
      1.00000000      1.00000000      1.00000000      1.00000000      1.00000000      1.00000000      1.00000000      1.00000000      1.00000000      1.00000000      1.00000000      1.00000000      1.00000000      1.00000000      1.00000000      1.00000000      1.00000000      1.00000000      1.00000000      1.00000000
      1.00000000      1.00000000      1.00000000      1.00000000      1.00000000      1.00000000      1.00000000      1.00000000      1.00000000      1.00000000      1.00000000      1.00000000      1.00000000      1.00000000      1.00000000      1.00000000      1.00000000      1.00000000      1.00000000      1.00000000
      1.00000000      1.00000000      1.00000000      1.00000000</v>
    <i name="NUPDOWN">     -1.00000000</i>
    <i type="logical" name="LSORBIT"> F  </i>
    <v name="SAXIS">      0.00000000      0.00000000      1.00000000</v>
    <i type="logical" name="LSPIRAL"> F  </i>
    <v name="QSPIRAL">      0.00000000      0.00000000      0.00000000</v>
    <i type="logical" name="LZEROZ"> F  </i>
   </separator>
   <separator name="electronic exchange-correlation" >
    <i type="logical" name="LASPH"> F  </i>
    <i type="logical" name="LMETAGGA"> F  </i>
   </separator>
   <separator name="electronic convergence" >
    <i type="int" name="NELM">    60</i>
    <i type="int" name="NELMDL">     0</i>
    <i type="int" name="NELMIN">     2</i>
    <i name="ENINI">    459.93125000</i>
    <separator name="electronic convergence detail" >
     <i type="logical" name="LDIAG"> T  </i>
     <i type="logical" name="LSUBROT"> F  </i>
     <i name="WEIMIN">      0.00100000</i>
     <i name="EBREAK">      0.00000000</i>
     <i name="DEPER">      0.30000000</i>
     <i type="int" name="NRMM">     4</i>
     <i name="TIME">      0.40000000</i>
    </separator>
   </separator>
   <separator name="electronic mixer" >
    <i name="AMIX">      0.40000000</i>
    <i name="BMIX">      1.00000000</i>
    <i name="AMIN">      0.10000000</i>
    <i name="AMIX_MAG">      1.60000000</i>
    <i name="BMIX_MAG">      1.00000000</i>
    <separator name="electronic mixer details" >
     <i type="int" name="IMIX">     4</i>
     <i type="logical" name="MIXFIRST"> F  </i>
     <i type="int" name="MAXMIX">   -45</i>
     <i name="WC">    100.00000000</i>
     <i type="int" name="INIMIX">     1</i>
     <i type="int" name="MIXPRE">     1</i>
     <i type="int" name="MREMOVE">     5</i>
    </separator>
   </separator>
   <separator name="electronic dipolcorrection" >
    <i type="logical" name="LDIPOL"> F  </i>
    <i type="logical" name="LMONO"> F  </i>
    <i type="int" name="IDIPOL">     0</i>
    <i name="EPSILON">      1.00000000</i>
    <v name="DIPOL">   -100.00000000   -100.00000000   -100.00000000</v>
    <i name="EFIELD">      0.00000000</i>
   </separator>
  </separator>
  <separator name="grids" >
   <i type="int" name="NGX">    72</i>
   <i type="int" name="NGY">    72</i>
   <i type="int" name="NGZ">    72</i>
   <i type="int" name="NGXF">   120</i>
   <i type="int" name="NGYF">   120</i>
   <i type="int" name="NGZF">   120</i>
   <i type="logical" name="ADDGRID"> F  </i>
  </separator>
  <separator name="ionic" >
   <i type="int" name="NSW">   805</i>
   <i type="int" name="IBRION">     6</i>
   <i type="int" name="ISIF">     2</i>
   <i name="PSTRESS">      0.00000000</i>
   <i name="EDIFFG">      0.00001000</i>
   <i type="int" name="NFREE">     2</i>
   <i name="POTIM">      0.50000000</i>
   <i name="SMASS">     -3.00000000</i>
   <i name="SCALEE">      1.00000000</i>
  </separator>
  <separator name="ionic md" >
   <i name="TEBEG">      0.00010000</i>
   <i name="TEEND">      0.00010000</i>
   <i type="int" name="NBLOCK">     1</i>
   <i type="int" name="KBLOCK">     1</i>
   <i type="int" name="NPACO">   256</i>
   <i name="APACO">     16.00000000</i>
  </separator>
  <separator name="symmetry" >
   <i type="int" name="ISYM">     2</i>
   <i name="SYMPREC">      0.00001000</i>
  </separator>
  <separator name="dos" >
   <i type="logical" name="LORBIT"> F  </i>
   <v name="RWIGS">     -1.00000000</v>
   <i type="int" name="NEDOS">   301</i>
   <i name="EMIN">     10.00000000</i>
   <i name="EMAX">    -10.00000000</i>
   <i name="EFERMI">      0.00000000</i>
  </separator>
  <separator name="writing" >
   <i type="int" name="NWRITE">     0</i>
   <i type="logical" name="LWAVE"> T  </i>
   <i type="logical" name="LCHARG"> T  </i>
   <i type="logical" name="LPARD"> F  </i>
   <i type="logical" name="LVTOT"> F  </i>
   <i type="logical" name="LVHAR"> F  </i>
   <i type="logical" name="LELF"> F  </i>
   <i type="logical" name="LOPTICS"> F  </i>
   <v name="STM">      0.00000000      0.00000000      0.00000000      0.00000000      0.00000000      0.00000000      0.00000000</v>
  </separator>
  <separator name="performance" >
   <i type="int" name="NPAR">     4</i>
   <i type="int" name="NSIM">     4</i>
   <i type="int" name="NBLK">    -1</i>
   <i type="logical" name="LPLANE"> T  </i>
   <i type="logical" name="LSCALAPACK"> T  </i>
   <i type="logical" name="LSCAAWARE"> F  </i>
   <i type="logical" name="LSCALU"> F  </i>
   <i type="logical" name="LASYNC"> F  </i>
   <i type="logical" name="LORBITALREAL"> F  </i>
  </separator>
  <separator name="miscellaneous" >
   <i type="int" name="IDIOT">     3</i>
   <i type="logical" name="LMUSIC"> F  </i>
   <v name="POMASS">     58.69000000</v>
   <v name="DARWINR">      0.00000000</v>
   <v name="DARWINV">      1.00000000</v>
   <i type="logical" name="LCORR"> T  </i>
  </separator>
  <i type="logical" name="GGA_COMPAT"> T  </i>
  <i type="logical" name="LBERRY"> F  </i>
  <i type="int" name="ICORELEVEL">     0</i>
  <i type="logical" name="LDAU"> F  </i>
  <i type="int" name="I_CONSTRAINED_M">     0</i>
  <separator name="electronic exchange-correlation" >
   <i type="string" name="GGA">--</i>
   <i type="int" name="VOSKOWN">     0</i>
   <i type="logical" name="LHFCALC"> F  </i>
   <i type="string" name="PRECFOCK"></i>
   <i type="logical" name="LSYMGRAD"> F  </i>
   <i type="logical" name="LHFONE"> F  </i>
   <i type="logical" name="LRHFCALC"> F  </i>
   <i type="logical" name="LTHOMAS"> F  </i>
   <i type="logical" name="LMODELHF"> F  </i>
   <i name="ENCUT4O">     -1.00000000</i>
   <i type="int" name="EXXOEP">     0</i>
   <i type="int" name="FOURORBIT">     0</i>
   <i name="AEXX">      0.00000000</i>
   <i name="HFALPHA">      0.00000000</i>
   <i name="MCALPHA">      0.00000000</i>
   <i name="ALDAX">      1.00000000</i>
   <i name="AGGAX">      1.00000000</i>
   <i name="ALDAC">      1.00000000</i>
   <i name="AGGAC">      1.00000000</i>
   <i type="int" name="NKREDX">     1</i>
   <i type="int" name="NKREDY">     1</i>
   <i type="int" name="NKREDZ">     1</i>
   <i type="logical" name="SHIFTRED"> F  </i>
   <i type="logical" name="ODDONLY"> F  </i>
   <i type="logical" name="EVENONLY"> F  </i>
   <i type="int" name="LMAXFOCK">     0</i>
   <i type="int" name="NMAXFOCKAE">     0</i>
   <i type="logical" name="LFOCKAEDFT"> F  </i>
   <i name="HFSCREEN">      0.00000000</i>
   <i name="HFSCREENC">      0.00000000</i>
   <i type="int" name="NBANDSGWLOW">     0</i>
  </separator>
  <separator name="vdW DFT" >
   <i type="logical" name="LUSE_VDW"> F  </i>
   <i name="Zab_VDW">     -0.84910000</i>
   <i name="PARAM1">      0.12340000</i>
   <i name="PARAM2">      1.00000000</i>
   <i name="PARAM3">      0.00000000</i>
  </separator>
  <separator name="model GW" >
   <i type="int" name="MODEL_GW">     0</i>
   <i name="MODEL_EPS0">      6.87015839</i>
   <i name="MODEL_ALPHA">      1.00000000</i>
  </separator>
  <separator name="linear response parameters" >
   <i type="logical" name="LEPSILON"> F  </i>
   <i type="logical" name="LRPA"> F  </i>
   <i type="logical" name="LNABLA"> F  </i>
   <i type="logical" name="LVEL"> F  </i>
   <i type="int" name="KINTER">     0</i>
   <i name="CSHIFT">      0.10000000</i>
   <i name="OMEGAMAX">     -1.00000000</i>
   <i name="DEG_THRESHOLD">      0.00200000</i>
  </separator>
  <separator name="orbital magnetization" >
   <i type="logical" name="NUCIND"> F  </i>
   <v name="MAGPOS">      0.00000000      0.00000000      0.00000000</v>
   <i type="logical" name="LNICSALL"> T  </i>
   <i type="logical" name="ORBITALMAG"> F  </i>
   <i type="logical" name="LMAGBLOCH"> F  </i>
   <i type="logical" name="LCHIMAG"> F  </i>
   <i type="logical" name="LGAUGE"> T  </i>
   <i type="int" name="MAGATOM">     0</i>
   <v name="MAGDIPOL">      0.00000000      0.00000000      0.00000000</v>
   <v name="AVECCONST">      0.00000000      0.00000000      0.00000000</v>
  </separator>
  <separator name="response functions" >
   <i type="logical" name="LADDER"> F  </i>
   <i type="logical" name="LFXC"> F  </i>
   <i type="logical" name="LHARTREE"> T  </i>
   <i type="int" name="IBSE">     0</i>
   <v type="int" name="KPOINT">    -1     0     0     0</v>
   <i type="logical" name="LTCTE"> F  </i>
   <i type="logical" name="LTETE"> F  </i>
   <i type="logical" name="LTRIPLET"> F  </i>
   <i type="logical" name="LFXCEPS"> F  </i>
   <i type="logical" name="LFXHEG"> F  </i>
   <i type="int" name="NATURALO">     0</i>
   <i type="logical" name="L2ORDER"> F  </i>
   <i type="logical" name="LUSEW"> F  </i>
   <i name="ENCUTGW">     -2.00000000</i>
   <i name="ENCUTGWSOFT">     -2.00000000</i>
   <i name="ENCUTLF">     -1.00000000</i>
   <i type="int" name="LMAXMP2">    -1</i>
   <i name="SCISSOR">      0.00000000</i>
   <i type="int" name="NOMEGA">     0</i>
   <i type="int" name="NOMEGAR">     0</i>
   <i type="int" name="NBANDSGW">    -1</i>
   <i type="int" name="NBANDSO">    -1</i>
   <i type="int" name="NBANDSV">    -1</i>
   <i type="int" name="NELM">     1</i>
   <i type="int" name="NELMHF">     1</i>
   <i type="int" name="DIM">     3</i>
   <i type="int" name="ANTIRES">     0</i>
   <i name="OMEGAMAX">    -30.00000000</i>
   <i name="OMEGAMIN">    -30.00000000</i>
   <i name="OMEGATL">   -200.00000000</i>
   <i type="int" name="OMEGAGRID">     0</i>
   <i name="CSHIFT">     -0.10000000</i>
   <i type="logical" name="SELFENERGY"> F  </i>
   <i type="logical" name="LSPECTRAL"> F  </i>
   <i type="logical" name="LSPECTRALGW"> F  </i>
   <i type="logical" name="LSINGLES"> F  </i>
   <i type="logical" name="LFERMIGW"> F  </i>
   <i type="logical" name="ODDONLYGW"> F  </i>
   <i type="logical" name="EVENONLYGW"> F  </i>
   <i type="int" name="NKREDLFX">     1</i>
   <i type="int" name="NKREDLFY">     1</i>
   <i type="int" name="NKREDLFZ">     1</i>
   <i type="int" name="MAXMEM">  1800</i>
   <i type="int" name="TELESCOPE">     0</i>
   <i type="int" name="TAUPAR">     1</i>
   <i type="int" name="OMEGAPAR">    -1</i>
   <i name="LAMBDA">      1.00000000</i>
  </separator>
  <separator name="External order field" >
   <i name="OFIELD_KAPPA">      0.00000000</i>
   <v name="OFIELD_K">      0.00000000      0.00000000      0.00000000</v>
   <i name="OFIELD_Q6_NEAR">      0.00000000</i>
   <i name="OFIELD_Q6_FAR">      0.00000000</i>
   <i name="OFIELD_A">      0.00000000</i>
  </separator>
 </parameters>
 <atominfo>
  <atoms>      64 </atoms>
  <types>       1 </types>
  <array name="atoms" >
   <dimension dim="1">ion</dimension>
   <field type="string">element</field>
   <field type="int">atomtype</field>
   <set>
    <rc><c>Ni</c><c>   1</c></rc>
    <rc><c>Ni</c><c>   1</c></rc>
    <rc><c>Ni</c><c>   1</c></rc>
    <rc><c>Ni</c><c>   1</c></rc>
    <rc><c>Ni</c><c>   1</c></rc>
    <rc><c>Ni</c><c>   1</c></rc>
    <rc><c>Ni</c><c>   1</c></rc>
    <rc><c>Ni</c><c>   1</c></rc>
    <rc><c>Ni</c><c>   1</c></rc>
    <rc><c>Ni</c><c>   1</c></rc>
    <rc><c>Ni</c><c>   1</c></rc>
    <rc><c>Ni</c><c>   1</c></rc>
    <rc><c>Ni</c><c>   1</c></rc>
    <rc><c>Ni</c><c>   1</c></rc>
    <rc><c>Ni</c><c>   1</c></rc>
    <rc><c>Ni</c><c>   1</c></rc>
    <rc><c>Ni</c><c>   1</c></rc>
    <rc><c>Ni</c><c>   1</c></rc>
    <rc><c>Ni</c><c>   1</c></rc>
    <rc><c>Ni</c><c>   1</c></rc>
    <rc><c>Ni</c><c>   1</c></rc>
    <rc><c>Ni</c><c>   1</c></rc>
    <rc><c>Ni</c><c>   1</c></rc>
    <rc><c>Ni</c><c>   1</c></rc>
    <rc><c>Ni</c><c>   1</c></rc>
    <rc><c>Ni</c><c>   1</c></rc>
    <rc><c>Ni</c><c>   1</c></rc>
    <rc><c>Ni</c><c>   1</c></rc>
    <rc><c>Ni</c><c>   1</c></rc>
    <rc><c>Ni</c><c>   1</c></rc>
    <rc><c>Ni</c><c>   1</c></rc>
    <rc><c>Ni</c><c>   1</c></rc>
    <rc><c>Ni</c><c>   1</c></rc>
    <rc><c>Ni</c><c>   1</c></rc>
    <rc><c>Ni</c><c>   1</c></rc>
    <rc><c>Ni</c><c>   1</c></rc>
    <rc><c>Ni</c><c>   1</c></rc>
    <rc><c>Ni</c><c>   1</c></rc>
    <rc><c>Ni</c><c>   1</c></rc>
    <rc><c>Ni</c><c>   1</c></rc>
    <rc><c>Ni</c><c>   1</c></rc>
    <rc><c>Ni</c><c>   1</c></rc>
    <rc><c>Ni</c><c>   1</c></rc>
    <rc><c>Ni</c><c>   1</c></rc>
    <rc><c>Ni</c><c>   1</c></rc>
    <rc><c>Ni</c><c>   1</c></rc>
    <rc><c>Ni</c><c>   1</c></rc>
    <rc><c>Ni</c><c>   1</c></rc>
    <rc><c>Ni</c><c>   1</c></rc>
    <rc><c>Ni</c><c>   1</c></rc>
    <rc><c>Ni</c><c>   1</c></rc>
    <rc><c>Ni</c><c>   1</c></rc>
    <rc><c>Ni</c><c>   1</c></rc>
    <rc><c>Ni</c><c>   1</c></rc>
    <rc><c>Ni</c><c>   1</c></rc>
    <rc><c>Ni</c><c>   1</c></rc>
    <rc><c>Ni</c><c>   1</c></rc>
    <rc><c>Ni</c><c>   1</c></rc>
    <rc><c>Ni</c><c>   1</c></rc>
    <rc><c>Ni</c><c>   1</c></rc>
    <rc><c>Ni</c><c>   1</c></rc>
    <rc><c>Ni</c><c>   1</c></rc>
    <rc><c>Ni</c><c>   1</c></rc>
    <rc><c>Ni</c><c>   1</c></rc>
   </set>
  </array>
  <array name="atomtypes" >
   <dimension dim="1">type</dimension>
   <field type="int">atomspertype</field>
   <field type="string">element</field>
   <field>mass</field>
   <field>valence</field>
   <field type="string">pseudopotential</field>
   <set>
    <rc><c>  64</c><c>Ni</c><c>     58.69000000</c><c>     16.00000000</c><c> PAW_PBE Ni_pv 06Sep2000                </c></rc>
   </set>
  </array>
 </atominfo>
 <structure name="initialpos" >
  <crystal>
   <varray name="basis" >
    <v>       0.00000000       7.15575000       7.15575000 </v>
    <v>       7.15575000       0.00000000       7.15575000 </v>
    <v>       7.15575000       7.15575000       0.00000000 </v>
   </varray>
   <i name="volume">    732.81689501 </i>
   <varray name="rec_basis" >
    <v>      -0.06987388       0.06987388       0.06987388 </v>
    <v>       0.06987388      -0.06987388       0.06987388 </v>
    <v>       0.06987388       0.06987388      -0.06987388 </v>
   </varray>
  </crystal>
  <varray name="positions" >
   <v>       0.00000000       0.00000000       0.00000000 </v>
   <v>       0.00000000       0.00000000       0.25000000 </v>
   <v>       0.00000000       0.00000000       0.50000000 </v>
   <v>       0.00000000       0.00000000       0.75000000 </v>
   <v>       0.00000000       0.25000000       0.00000000 </v>
   <v>       0.00000000       0.25000000       0.25000000 </v>
   <v>       0.00000000       0.25000000       0.50000000 </v>
   <v>       0.00000000       0.25000000       0.75000000 </v>
   <v>       0.00000000       0.50000000       0.00000000 </v>
   <v>       0.00000000       0.50000000       0.25000000 </v>
   <v>       0.00000000       0.50000000       0.50000000 </v>
   <v>       0.00000000       0.50000000       0.75000000 </v>
   <v>       0.00000000       0.75000000       0.00000000 </v>
   <v>       0.00000000       0.75000000       0.25000000 </v>
   <v>       0.00000000       0.75000000       0.50000000 </v>
   <v>       0.00000000       0.75000000       0.75000000 </v>
   <v>       0.25000000       0.00000000       0.00000000 </v>
   <v>       0.25000000       0.00000000       0.25000000 </v>
   <v>       0.25000000       0.00000000       0.50000000 </v>
   <v>       0.25000000       0.00000000       0.75000000 </v>
   <v>       0.25000000       0.25000000       0.00000000 </v>
   <v>       0.25000000       0.25000000       0.25000000 </v>
   <v>       0.25000000       0.25000000       0.50000000 </v>
   <v>       0.25000000       0.25000000       0.75000000 </v>
   <v>       0.25000000       0.50000000       0.00000000 </v>
   <v>       0.25000000       0.50000000       0.25000000 </v>
   <v>       0.25000000       0.50000000       0.50000000 </v>
   <v>       0.25000000       0.50000000       0.75000000 </v>
   <v>       0.25000000       0.75000000       0.00000000 </v>
   <v>       0.25000000       0.75000000       0.25000000 </v>
   <v>       0.25000000       0.75000000       0.50000000 </v>
   <v>       0.25000000       0.75000000       0.75000000 </v>
   <v>       0.50000000       0.00000000       0.00000000 </v>
   <v>       0.50000000       0.00000000       0.25000000 </v>
   <v>       0.50000000       0.00000000       0.50000000 </v>
   <v>       0.50000000       0.00000000       0.75000000 </v>
   <v>       0.50000000       0.25000000       0.00000000 </v>
   <v>       0.50000000       0.25000000       0.25000000 </v>
   <v>       0.50000000       0.25000000       0.50000000 </v>
   <v>       0.50000000       0.25000000       0.75000000 </v>
   <v>       0.50000000       0.50000000       0.00000000 </v>
   <v>       0.50000000       0.50000000       0.25000000 </v>
   <v>       0.50000000       0.50000000       0.50000000 </v>
   <v>       0.50000000       0.50000000       0.75000000 </v>
   <v>       0.50000000       0.75000000       0.00000000 </v>
   <v>       0.50000000       0.75000000       0.25000000 </v>
   <v>       0.50000000       0.75000000       0.50000000 </v>
   <v>       0.50000000       0.75000000       0.75000000 </v>
   <v>       0.75000000       0.00000000       0.00000000 </v>
   <v>       0.75000000       0.00000000       0.25000000 </v>
   <v>       0.75000000       0.00000000       0.50000000 </v>
   <v>       0.75000000       0.00000000       0.75000000 </v>
   <v>       0.75000000       0.25000000       0.00000000 </v>
   <v>       0.75000000       0.25000000       0.25000000 </v>
   <v>       0.75000000       0.25000000       0.50000000 </v>
   <v>       0.75000000       0.25000000       0.75000000 </v>
   <v>       0.75000000       0.50000000       0.00000000 </v>
   <v>       0.75000000       0.50000000       0.25000000 </v>
   <v>       0.75000000       0.50000000       0.50000000 </v>
   <v>       0.75000000       0.50000000       0.75000000 </v>
   <v>       0.75000000       0.75000000       0.00000000 </v>
   <v>       0.75000000       0.75000000       0.25000000 </v>
   <v>       0.75000000       0.75000000       0.50000000 </v>
   <v>       0.75000000       0.75000000       0.75000000 </v>
  </varray>
 </structure>
 <calculation>
  <scstep>
   <time name="dav">  155.61  155.49</time>
   <time name="total">  156.22  156.10</time>
   <energy>
    <i name="alphaZ">   9415.99145534 </i>
    <i name="ewald">-151163.59208212 </i>
    <i name="hartreedc"> -63206.27708342 </i>
    <i name="XCdc">   5707.96683431 </i>
    <i name="pawpsdc"> 172361.15642774 </i>
    <i name="pawaedc">-181272.45834873 </i>
    <i name="eentropy">     -0.01445057 </i>
    <i name="bandstr">    -92.00599843 </i>
    <i name="atom"> 224016.65216645 </i>
    <i name="e_fr_energy">  15767.41892057 </i>
    <i name="e_wo_entrp">  15767.43337115 </i>
    <i name="e_0_energy">  15767.42373743 </i>
   </energy>
  </scstep>
  <scstep>
   <time name="dav">  143.67  143.56</time>
   <time name="total">  143.68  143.56</time>
   <energy>
    <i name="e_fr_energy">   1092.51962680 </i>
    <i name="e_wo_entrp">   1092.48763223 </i>
    <i name="e_0_energy">   1092.50896194 </i>
   </energy>
  </scstep>
  <scstep>
   <time name="dav">  144.84  144.72</time>
   <time name="total">  144.84  144.73</time>
   <energy>
    <i name="e_fr_energy">   -349.18765888 </i>
    <i name="e_wo_entrp">   -349.35476134 </i>
    <i name="e_0_energy">   -349.24335970 </i>
   </energy>
  </scstep>
  <scstep>
   <time name="dav">  150.56  150.44</time>
   <time name="total">  150.56  150.45</time>
   <energy>
    <i name="e_fr_energy">   -431.07784556 </i>
    <i name="e_wo_entrp">   -431.25534435 </i>
    <i name="e_0_energy">   -431.13701183 </i>
   </energy>
  </scstep>
  <scstep>
   <time name="dav">  153.24  153.12</time>
   <time name="total">  162.12  162.00</time>
   <energy>
    <i name="e_fr_energy">   -432.44984872 </i>
    <i name="e_wo_entrp">   -432.62715482 </i>
    <i name="e_0_energy">   -432.50895075 </i>
   </energy>
  </scstep>
  <scstep>
   <time name="dav">  153.81  153.69</time>
   <time name="total">  162.95  162.82</time>
   <energy>
    <i name="e_fr_energy">   -400.87595719 </i>
    <i name="e_wo_entrp">   -400.48484414 </i>
    <i name="e_0_energy">   -400.74558617 </i>
   </energy>
  </scstep>
  <scstep>
   <time name="dav">  152.55  152.43</time>
   <time name="total">  161.93  161.80</time>
   <energy>
    <i name="e_fr_energy">   -369.54271287 </i>
    <i name="e_wo_entrp">   -369.51617663 </i>
    <i name="e_0_energy">   -369.53386746 </i>
   </energy>
  </scstep>
  <scstep>
   <time name="dav">  155.42  155.31</time>
   <time name="total">  164.93  164.81</time>
   <energy>
    <i name="e_fr_energy">   -369.58029982 </i>
    <i name="e_wo_entrp">   -369.55594214 </i>
    <i name="e_0_energy">   -369.57218059 </i>
   </energy>
  </scstep>
  <scstep>
   <time name="dav">  160.90  160.78</time>
   <time name="total">  170.02  169.90</time>
   <energy>
    <i name="e_fr_energy">   -369.43204774 </i>
    <i name="e_wo_entrp">   -369.39686072 </i>
    <i name="e_0_energy">   -369.42031873 </i>
   </energy>
  </scstep>
  <scstep>
   <time name="dav">  162.60  162.49</time>
   <time name="total">  171.75  171.63</time>
   <energy>
    <i name="e_fr_energy">   -369.43801000 </i>
    <i name="e_wo_entrp">   -369.40331689 </i>
    <i name="e_0_energy">   -369.42644563 </i>
   </energy>
  </scstep>
  <scstep>
   <time name="dav">  154.43  154.31</time>
   <time name="total">  163.66  163.53</time>
   <energy>
    <i name="e_fr_energy">   -369.44210641 </i>
    <i name="e_wo_entrp">   -369.40819324 </i>
    <i name="e_0_energy">   -369.43080202 </i>
   </energy>
  </scstep>
  <scstep>
   <time name="dav">  152.04  151.92</time>
   <time name="total">  161.30  161.17</time>
   <energy>
    <i name="e_fr_energy">   -369.44213827 </i>
    <i name="e_wo_entrp">   -369.40681820 </i>
    <i name="e_0_energy">   -369.43036491 </i>
   </energy>
  </scstep>
  <scstep>
   <time name="dav">  151.48  151.36</time>
   <time name="total">  160.44  160.31</time>
   <energy>
    <i name="e_fr_energy">   -369.44214608 </i>
    <i name="e_wo_entrp">   -369.40655997 </i>
    <i name="e_0_energy">   -369.43028404 </i>
   </energy>
  </scstep>
  <scstep>
   <time name="dav">  134.11  134.00</time>
   <time name="total">  143.19  143.07</time>
   <energy>
    <i name="e_fr_energy">   -369.44212525 </i>
    <i name="e_wo_entrp">   -369.40657126 </i>
    <i name="e_0_energy">   -369.43027392 </i>
   </energy>
  </scstep>
  <scstep>
   <time name="dav">   95.80   95.73</time>
   <time name="total">  105.09  105.00</time>
   <energy>
    <i name="e_fr_energy">   -369.44211845 </i>
    <i name="e_wo_entrp">   -369.40662452 </i>
    <i name="e_0_energy">   -369.43028714 </i>
   </energy>
  </scstep>
  <scstep>
   <time name="dav">   94.64   94.57</time>
   <time name="total">   95.26   95.72</time>
   <energy>
    <i name="alphaZ">   9415.99145534 </i>
    <i name="ewald">-151163.59208212 </i>
    <i name="hartreedc"> -60856.05053160 </i>
    <i name="XCdc">   5619.60037202 </i>
    <i name="pawpsdc"> 171424.72642805 </i>
    <i name="pawaedc">-180480.60101823 </i>
    <i name="eentropy">     -0.03547846 </i>
    <i name="bandstr"> -18346.13342997 </i>
    <i name="atom"> 224016.65216645 </i>
    <i name="e_fr_energy">   -369.44211852 </i>
    <i name="e_wo_entrp">   -369.40664005 </i>
    <i name="e_0_energy">   -369.43029236 </i>
   </energy>
  </scstep>
  <structure>
   <crystal>
    <varray name="basis" >
     <v>       0.00000000       7.15575000       7.15575000 </v>
     <v>       7.15575000       0.00000000       7.15575000 </v>
     <v>       7.15575000       7.15575000       0.00000000 </v>
    </varray>
    <i name="volume">    732.81689501 </i>
    <varray name="rec_basis" >
     <v>      -0.06987388       0.06987388       0.06987388 </v>
     <v>       0.06987388      -0.06987388       0.06987388 </v>
     <v>       0.06987388       0.06987388      -0.06987388 </v>
    </varray>
   </crystal>
   <varray name="positions" >
    <v>       0.00000000       0.00000000       0.00000000 </v>
    <v>       0.00000000       0.00000000       0.25000000 </v>
    <v>       0.00000000       0.00000000       0.50000000 </v>
    <v>       0.00000000       0.00000000       0.75000000 </v>
    <v>       0.00000000       0.25000000       0.00000000 </v>
    <v>       0.00000000       0.25000000       0.25000000 </v>
    <v>       0.00000000       0.25000000       0.50000000 </v>
    <v>       0.00000000       0.25000000       0.75000000 </v>
    <v>       0.00000000       0.50000000       0.00000000 </v>
    <v>       0.00000000       0.50000000       0.25000000 </v>
    <v>       0.00000000       0.50000000       0.50000000 </v>
    <v>       0.00000000       0.50000000       0.75000000 </v>
    <v>       0.00000000       0.75000000       0.00000000 </v>
    <v>       0.00000000       0.75000000       0.25000000 </v>
    <v>       0.00000000       0.75000000       0.50000000 </v>
    <v>       0.00000000       0.75000000       0.75000000 </v>
    <v>       0.25000000       0.00000000       0.00000000 </v>
    <v>       0.25000000       0.00000000       0.25000000 </v>
    <v>       0.25000000       0.00000000       0.50000000 </v>
    <v>       0.25000000       0.00000000       0.75000000 </v>
    <v>       0.25000000       0.25000000       0.00000000 </v>
    <v>       0.25000000       0.25000000       0.25000000 </v>
    <v>       0.25000000       0.25000000       0.50000000 </v>
    <v>       0.25000000       0.25000000       0.75000000 </v>
    <v>       0.25000000       0.50000000       0.00000000 </v>
    <v>       0.25000000       0.50000000       0.25000000 </v>
    <v>       0.25000000       0.50000000       0.50000000 </v>
    <v>       0.25000000       0.50000000       0.75000000 </v>
    <v>       0.25000000       0.75000000       0.00000000 </v>
    <v>       0.25000000       0.75000000       0.25000000 </v>
    <v>       0.25000000       0.75000000       0.50000000 </v>
    <v>       0.25000000       0.75000000       0.75000000 </v>
    <v>       0.50000000       0.00000000       0.00000000 </v>
    <v>       0.50000000       0.00000000       0.25000000 </v>
    <v>       0.50000000       0.00000000       0.50000000 </v>
    <v>       0.50000000       0.00000000       0.75000000 </v>
    <v>       0.50000000       0.25000000       0.00000000 </v>
    <v>       0.50000000       0.25000000       0.25000000 </v>
    <v>       0.50000000       0.25000000       0.50000000 </v>
    <v>       0.50000000       0.25000000       0.75000000 </v>
    <v>       0.50000000       0.50000000       0.00000000 </v>
    <v>       0.50000000       0.50000000       0.25000000 </v>
    <v>       0.50000000       0.50000000       0.50000000 </v>
    <v>       0.50000000       0.50000000       0.75000000 </v>
    <v>       0.50000000       0.75000000       0.00000000 </v>
    <v>       0.50000000       0.75000000       0.25000000 </v>
    <v>       0.50000000       0.75000000       0.50000000 </v>
    <v>       0.50000000       0.75000000       0.75000000 </v>
    <v>       0.75000000       0.00000000       0.00000000 </v>
    <v>       0.75000000       0.00000000       0.25000000 </v>
    <v>       0.75000000       0.00000000       0.50000000 </v>
    <v>       0.75000000       0.00000000       0.75000000 </v>
    <v>       0.75000000       0.25000000       0.00000000 </v>
    <v>       0.75000000       0.25000000       0.25000000 </v>
    <v>       0.75000000       0.25000000       0.50000000 </v>
    <v>       0.75000000       0.25000000       0.75000000 </v>
    <v>       0.75000000       0.50000000       0.00000000 </v>
    <v>       0.75000000       0.50000000       0.25000000 </v>
    <v>       0.75000000       0.50000000       0.50000000 </v>
    <v>       0.75000000       0.50000000       0.75000000 </v>
    <v>       0.75000000       0.75000000       0.00000000 </v>
    <v>       0.75000000       0.75000000       0.25000000 </v>
    <v>       0.75000000       0.75000000       0.50000000 </v>
    <v>       0.75000000       0.75000000       0.75000000 </v>
   </varray>
  </structure>
  <varray name="forces" >
   <v>      -0.00000000      -0.00000000      -0.00000000 </v>
   <v>       0.00000000      -0.00000000      -0.00000000 </v>
   <v>      -0.00000000      -0.00000000      -0.00000000 </v>
   <v>       0.00000000      -0.00000000       0.00000000 </v>
   <v>       0.00000000      -0.00000000       0.00000000 </v>
   <v>       0.00000000       0.00000000       0.00000000 </v>
   <v>       0.00000000      -0.00000000      -0.00000000 </v>
   <v>       0.00000000      -0.00000000       0.00000000 </v>
   <v>       0.00000000      -0.00000000       0.00000000 </v>
   <v>      -0.00000000       0.00000000      -0.00000000 </v>
   <v>      -0.00000000      -0.00000000       0.00000000 </v>
   <v>       0.00000000       0.00000000      -0.00000000 </v>
   <v>      -0.00000000       0.00000000      -0.00000000 </v>
   <v>       0.00000000       0.00000000      -0.00000000 </v>
   <v>      -0.00000000      -0.00000000       0.00000000 </v>
   <v>       0.00000000       0.00000000      -0.00000000 </v>
   <v>       0.00000000       0.00000000       0.00000000 </v>
   <v>       0.00000000       0.00000000       0.00000000 </v>
   <v>      -0.00000000       0.00000000       0.00000000 </v>
   <v>       0.00000000      -0.00000000       0.00000000 </v>
   <v>       0.00000000       0.00000000       0.00000000 </v>
   <v>      -0.00000000       0.00000000       0.00000000 </v>
   <v>       0.00000000       0.00000000       0.00000000 </v>
   <v>      -0.00000000       0.00000000      -0.00000000 </v>
   <v>      -0.00000000      -0.00000000       0.00000000 </v>
   <v>      -0.00000000      -0.00000000      -0.00000000 </v>
   <v>      -0.00000000      -0.00000000      -0.00000000 </v>
   <v>       0.00000000      -0.00000000      -0.00000000 </v>
   <v>      -0.00000000       0.00000000       0.00000000 </v>
   <v>       0.00000000       0.00000000      -0.00000000 </v>
   <v>      -0.00000000       0.00000000       0.00000000 </v>
   <v>       0.00000000       0.00000000       0.00000000 </v>
   <v>      -0.00000000       0.00000000       0.00000000 </v>
   <v>       0.00000000       0.00000000      -0.00000000 </v>
   <v>      -0.00000000      -0.00000000       0.00000000 </v>
   <v>       0.00000000      -0.00000000      -0.00000000 </v>
   <v>      -0.00000000       0.00000000      -0.00000000 </v>
   <v>      -0.00000000      -0.00000000       0.00000000 </v>
   <v>       0.00000000       0.00000000       0.00000000 </v>
   <v>      -0.00000000       0.00000000       0.00000000 </v>
   <v>       0.00000000      -0.00000000       0.00000000 </v>
   <v>      -0.00000000      -0.00000000      -0.00000000 </v>
   <v>      -0.00000000      -0.00000000      -0.00000000 </v>
   <v>       0.00000000      -0.00000000      -0.00000000 </v>
   <v>      -0.00000000       0.00000000       0.00000000 </v>
   <v>       0.00000000      -0.00000000       0.00000000 </v>
   <v>      -0.00000000      -0.00000000       0.00000000 </v>
   <v>       0.00000000       0.00000000      -0.00000000 </v>
   <v>       0.00000000      -0.00000000       0.00000000 </v>
   <v>       0.00000000       0.00000000      -0.00000000 </v>
   <v>      -0.00000000      -0.00000000       0.00000000 </v>
   <v>       0.00000000      -0.00000000       0.00000000 </v>
   <v>       0.00000000      -0.00000000      -0.00000000 </v>
   <v>       0.00000000       0.00000000      -0.00000000 </v>
   <v>      -0.00000000       0.00000000      -0.00000000 </v>
   <v>       0.00000000       0.00000000      -0.00000000 </v>
   <v>       0.00000000      -0.00000000       0.00000000 </v>
   <v>      -0.00000000      -0.00000000      -0.00000000 </v>
   <v>      -0.00000000      -0.00000000      -0.00000000 </v>
   <v>      -0.00000000      -0.00000000      -0.00000000 </v>
   <v>      -0.00000000      -0.00000000       0.00000000 </v>
   <v>       0.00000000       0.00000000      -0.00000000 </v>
   <v>      -0.00000000      -0.00000000       0.00000000 </v>
   <v>      -0.00000000      -0.00000000      -0.00000000 </v>
  </varray>
  <varray name="stress" >
   <v>     -88.98794890      -0.00000000      -0.00000000 </v>
   <v>      -0.00000000     -88.98794890       0.00000000 </v>
   <v>       0.00000000       0.00000000     -88.98794890 </v>
  </varray>
  <energy>
   <i name="e_fr_energy">   -369.44211852 </i>
   <i name="e_wo_entrp">   -369.43029236 </i>
   <i name="e_0_energy">     -0.03547846 </i>
  </energy>
  <kpoints>
   <generation param="Gamma">
    <v type="int" name="divisions">       3        3        3 </v>
    <v name="usershift">      0.00000000       0.00000000       0.00000000 </v>
    <v name="genvec1">      0.33333333       0.00000000       0.00000000 </v>
    <v name="genvec2">      0.00000000       0.33333333       0.00000000 </v>
    <v name="genvec3">      0.00000000       0.00000000       0.33333333 </v>
    <v name="shift">      0.00000000       0.00000000       0.00000000 </v>
   </generation>
   <varray name="kpointlist" >
    <v>       0.00000000       0.00000000       0.00000000 </v>
    <v>       0.33333333       0.00000000       0.00000000 </v>
    <v>       0.33333333       0.33333333       0.00000000 </v>
    <v>      -0.33333333       0.33333333       0.00000000 </v>
    <v>       0.00000000       0.33333333       0.33333333 </v>
    <v>      -0.33333333       0.33333333       0.33333333 </v>
   </varray>
   <varray name="weights" >
    <v>       0.03703704 </v>
    <v>       0.29629630 </v>
    <v>       0.14814815 </v>
    <v>       0.29629630 </v>
    <v>       0.07407407 </v>
    <v>       0.14814815 </v>
   </varray>
  </kpoints>
  <time name="totalsc"> 2612.35 2616.15</time>
 </calculation>
 <calculation>
  <scstep>
   <time name="dav">  278.81  278.59</time>
   <time name="total">  291.25  291.02</time>
   <energy>
    <i name="alphaZ">   9415.99145534 </i>
    <i name="ewald">-151163.44274250 </i>
    <i name="hartreedc"> -60856.19587824 </i>
    <i name="XCdc">   5619.60123207 </i>
    <i name="pawpsdc"> 171424.53467223 </i>
    <i name="pawaedc">-180480.41639945 </i>
    <i name="eentropy">     -0.03543686 </i>
    <i name="bandstr"> -18346.03467936 </i>
    <i name="atom"> 224016.65216645 </i>
    <i name="e_fr_energy">   -369.34561031 </i>
    <i name="e_wo_entrp">   -369.31017345 </i>
    <i name="e_0_energy">   -369.33379803 </i>
   </energy>
  </scstep>
  <scstep>
   <time name="dav">  228.14  227.96</time>
   <time name="total">  240.05  239.87</time>
   <energy>
    <i name="e_fr_energy">   -369.44103206 </i>
    <i name="e_wo_entrp">   -369.40553671 </i>
    <i name="e_0_energy">   -369.42920027 </i>
   </energy>
  </scstep>
  <scstep>
   <time name="dav">  268.97  268.76</time>
   <time name="total">  280.78  280.55</time>
   <energy>
    <i name="e_fr_energy">   -369.44502226 </i>
    <i name="e_wo_entrp">   -369.40938227 </i>
    <i name="e_0_energy">   -369.43314226 </i>
   </energy>
  </scstep>
  <scstep>
   <time name="dav">  249.62  249.43</time>
   <time name="total">  261.77  261.56</time>
   <energy>
    <i name="e_fr_energy">   -369.44280492 </i>
    <i name="e_wo_entrp">   -369.40730660 </i>
    <i name="e_0_energy">   -369.43097215 </i>
   </energy>
  </scstep>
  <scstep>
   <time name="dav">  240.74  240.54</time>
   <time name="total">  252.84  252.64</time>
   <energy>
    <i name="e_fr_energy">   -369.44148907 </i>
    <i name="e_wo_entrp">   -369.40600581 </i>
    <i name="e_0_energy">   -369.42966131 </i>
   </energy>
  </scstep>
  <scstep>
   <time name="dav">  274.09  273.88</time>
   <time name="total">  286.06  285.84</time>
   <energy>
    <i name="e_fr_energy">   -369.44147655 </i>
    <i name="e_wo_entrp">   -369.40599585 </i>
    <i name="e_0_energy">   -369.42964965 </i>
   </energy>
  </scstep>
  <scstep>
   <time name="dav">  242.73  242.53</time>
   <time name="total">  254.92  254.72</time>
   <energy>
    <i name="e_fr_energy">   -369.44141497 </i>
    <i name="e_wo_entrp">   -369.40594017 </i>
    <i name="e_0_energy">   -369.42959003 </i>
   </energy>
  </scstep>
  <scstep>
   <time name="dav">  244.55  244.36</time>
   <time name="total">  256.83  256.64</time>
   <energy>
    <i name="e_fr_energy">   -369.44139622 </i>
    <i name="e_wo_entrp">   -369.40592268 </i>
    <i name="e_0_energy">   -369.42957170 </i>
   </energy>
  </scstep>
  <scstep>
   <time name="dav">  247.92  247.72</time>
   <time name="total">  259.99  259.79</time>
   <energy>
    <i name="e_fr_energy">   -369.44135487 </i>
    <i name="e_wo_entrp">   -369.40588740 </i>
    <i name="e_0_energy">   -369.42953238 </i>
   </energy>
  </scstep>
  <scstep>
   <time name="dav">  280.23  280.03</time>
   <time name="total">  292.32  292.11</time>
   <energy>
    <i name="e_fr_energy">   -369.44126459 </i>
    <i name="e_wo_entrp">   -369.40579717 </i>
    <i name="e_0_energy">   -369.42944212 </i>
   </energy>
  </scstep>
  <scstep>
   <time name="dav">  294.08  293.85</time>
   <time name="total">  306.02  305.78</time>
   <energy>
    <i name="e_fr_energy">   -369.44127001 </i>
    <i name="e_wo_entrp">   -369.40580522 </i>
    <i name="e_0_energy">   -369.42944841 </i>
   </energy>
  </scstep>
  <scstep>
   <time name="dav">  237.30  237.11</time>
   <time name="total">  249.51  249.31</time>
   <energy>
    <i name="e_fr_energy">   -369.44126523 </i>
    <i name="e_wo_entrp">   -369.40580186 </i>
    <i name="e_0_energy">   -369.42944410 </i>
   </energy>
  </scstep>
  <scstep>
   <time name="dav">  206.40  206.29</time>
   <time name="total">  218.09  217.97</time>
   <energy>
    <i name="e_fr_energy">   -369.44126350 </i>
    <i name="e_wo_entrp">   -369.40580086 </i>
    <i name="e_0_energy">   -369.42944262 </i>
   </energy>
  </scstep>
  <scstep>
   <time name="dav">  143.48  143.37</time>
   <time name="total">  144.07  143.96</time>
   <energy>
    <i name="alphaZ">   9415.99145534 </i>
    <i name="ewald">-151163.44274250 </i>
    <i name="hartreedc"> -60856.18001270 </i>
    <i name="XCdc">   5619.60039706 </i>
    <i name="pawpsdc"> 171424.38470314 </i>
    <i name="pawaedc">-180480.26572340 </i>
    <i name="eentropy">     -0.03546496 </i>
    <i name="bandstr"> -18346.14604219 </i>
    <i name="atom"> 224016.65216645 </i>
    <i name="e_fr_energy">   -369.44126376 </i>
    <i name="e_wo_entrp">   -369.40579880 </i>
    <i name="e_0_energy">   -369.42944211 </i>
   </energy>
  </scstep>
  <structure>
   <crystal>
    <varray name="basis" >
     <v>       0.00000000       7.15575000       7.15575000 </v>
     <v>       7.15575000       0.00000000       7.15575000 </v>
     <v>       7.15575000       7.15575000       0.00000000 </v>
    </varray>
    <i name="volume">    732.81689501 </i>
    <varray name="rec_basis" >
     <v>      -0.06987388       0.06987388       0.06987388 </v>
     <v>       0.06987388      -0.06987388       0.06987388 </v>
     <v>       0.06987388       0.06987388      -0.06987388 </v>
    </varray>
   </crystal>
   <varray name="positions" >
    <v>      -0.00104811       0.00104811       0.00104811 </v>
    <v>       0.00000000       0.00000000       0.25000000 </v>
    <v>       0.00000000       0.00000000       0.50000000 </v>
    <v>       0.00000000       0.00000000       0.75000000 </v>
    <v>       0.00000000       0.25000000       0.00000000 </v>
    <v>       0.00000000       0.25000000       0.25000000 </v>
    <v>       0.00000000       0.25000000       0.50000000 </v>
    <v>       0.00000000       0.25000000       0.75000000 </v>
    <v>       0.00000000       0.50000000       0.00000000 </v>
    <v>       0.00000000       0.50000000       0.25000000 </v>
    <v>       0.00000000       0.50000000       0.50000000 </v>
    <v>       0.00000000       0.50000000       0.75000000 </v>
    <v>       0.00000000       0.75000000       0.00000000 </v>
    <v>       0.00000000       0.75000000       0.25000000 </v>
    <v>       0.00000000       0.75000000       0.50000000 </v>
    <v>       0.00000000       0.75000000       0.75000000 </v>
    <v>       0.25000000       0.00000000       0.00000000 </v>
    <v>       0.25000000       0.00000000       0.25000000 </v>
    <v>       0.25000000       0.00000000       0.50000000 </v>
    <v>       0.25000000       0.00000000       0.75000000 </v>
    <v>       0.25000000       0.25000000       0.00000000 </v>
    <v>       0.25000000       0.25000000       0.25000000 </v>
    <v>       0.25000000       0.25000000       0.50000000 </v>
    <v>       0.25000000       0.25000000       0.75000000 </v>
    <v>       0.25000000       0.50000000       0.00000000 </v>
    <v>       0.25000000       0.50000000       0.25000000 </v>
    <v>       0.25000000       0.50000000       0.50000000 </v>
    <v>       0.25000000       0.50000000       0.75000000 </v>
    <v>       0.25000000       0.75000000       0.00000000 </v>
    <v>       0.25000000       0.75000000       0.25000000 </v>
    <v>       0.25000000       0.75000000       0.50000000 </v>
    <v>       0.25000000       0.75000000       0.75000000 </v>
    <v>       0.50000000       0.00000000       0.00000000 </v>
    <v>       0.50000000       0.00000000       0.25000000 </v>
    <v>       0.50000000       0.00000000       0.50000000 </v>
    <v>       0.50000000       0.00000000       0.75000000 </v>
    <v>       0.50000000       0.25000000       0.00000000 </v>
    <v>       0.50000000       0.25000000       0.25000000 </v>
    <v>       0.50000000       0.25000000       0.50000000 </v>
    <v>       0.50000000       0.25000000       0.75000000 </v>
    <v>       0.50000000       0.50000000       0.00000000 </v>
    <v>       0.50000000       0.50000000       0.25000000 </v>
    <v>       0.50000000       0.50000000       0.50000000 </v>
    <v>       0.50000000       0.50000000       0.75000000 </v>
    <v>       0.50000000       0.75000000       0.00000000 </v>
    <v>       0.50000000       0.75000000       0.25000000 </v>
    <v>       0.50000000       0.75000000       0.50000000 </v>
    <v>       0.50000000       0.75000000       0.75000000 </v>
    <v>       0.75000000       0.00000000       0.00000000 </v>
    <v>       0.75000000       0.00000000       0.25000000 </v>
    <v>       0.75000000       0.00000000       0.50000000 </v>
    <v>       0.75000000       0.00000000       0.75000000 </v>
    <v>       0.75000000       0.25000000       0.00000000 </v>
    <v>       0.75000000       0.25000000       0.25000000 </v>
    <v>       0.75000000       0.25000000       0.50000000 </v>
    <v>       0.75000000       0.25000000       0.75000000 </v>
    <v>       0.75000000       0.50000000       0.00000000 </v>
    <v>       0.75000000       0.50000000       0.25000000 </v>
    <v>       0.75000000       0.50000000       0.50000000 </v>
    <v>       0.75000000       0.50000000       0.75000000 </v>
    <v>       0.75000000       0.75000000       0.00000000 </v>
    <v>       0.75000000       0.75000000       0.25000000 </v>
    <v>       0.75000000       0.75000000       0.50000000 </v>
    <v>       0.75000000       0.75000000       0.75000000 </v>
   </varray>
  </structure>
  <varray name="forces" >
   <v>      -0.11274660      -0.00000000       0.00000000 </v>
   <v>       0.01290799       0.01432382       0.00000000 </v>
   <v>       0.00012193       0.00007886      -0.00000000 </v>
   <v>       0.01220972       0.01343945       0.00000000 </v>
   <v>       0.01290799      -0.00000000       0.01432382 </v>
   <v>       0.00107238       0.00066081       0.00066081 </v>
   <v>       0.00022870       0.00064780      -0.00034833 </v>
   <v>      -0.00008793       0.00006729      -0.00006729 </v>
   <v>       0.00012193      -0.00000000       0.00007886 </v>
   <v>       0.00022870      -0.00034833       0.00064780 </v>
   <v>       0.00000587      -0.00000000       0.00000000 </v>
   <v>       0.00022198      -0.00031703       0.00070833 </v>
   <v>       0.01220972      -0.00000000       0.01343945 </v>
   <v>      -0.00008793      -0.00006729       0.00006729 </v>
   <v>       0.00022198       0.00070833      -0.00031703 </v>
   <v>       0.00100083       0.00068435       0.00068435 </v>
   <v>      -0.00008793      -0.00006729      -0.00006729 </v>
   <v>       0.00022198       0.00070833       0.00031703 </v>
   <v>       0.00100083       0.00068435      -0.00068435 </v>
   <v>       0.01220972      -0.00000000      -0.01343945 </v>
   <v>       0.00022198       0.00031703       0.00070833 </v>
   <v>       0.00023867      -0.00000000      -0.00000000 </v>
   <v>       0.00022870       0.00034833      -0.00064780 </v>
   <v>      -0.00068506      -0.00000000       0.00002097 </v>
   <v>       0.00100083      -0.00068435       0.00068435 </v>
   <v>       0.00022870      -0.00064780       0.00034833 </v>
   <v>      -0.00027209       0.00000653       0.00000653 </v>
   <v>       0.00005865      -0.00000000      -0.00006445 </v>
   <v>       0.01220972      -0.01343945       0.00000000 </v>
   <v>      -0.00068506       0.00002097       0.00000000 </v>
   <v>       0.00005865      -0.00006445       0.00000000 </v>
   <v>       0.00188084      -0.00000000       0.00000000 </v>
   <v>       0.00000587      -0.00000000       0.00000000 </v>
   <v>       0.00022198      -0.00031703      -0.00070833 </v>
   <v>       0.00012193      -0.00000000      -0.00007886 </v>
   <v>       0.00022870      -0.00034833      -0.00064780 </v>
   <v>       0.00022198      -0.00070833      -0.00031703 </v>
   <v>       0.00107238      -0.00066081      -0.00066081 </v>
   <v>       0.00003884      -0.00000000       0.00007204 </v>
   <v>      -0.00027209      -0.00000653       0.00000653 </v>
   <v>       0.00012193      -0.00007886       0.00000000 </v>
   <v>       0.00003884       0.00007204       0.00000000 </v>
   <v>      -0.00059692      -0.00000000       0.00000000 </v>
   <v>       0.00005865       0.00006445       0.00000000 </v>
   <v>       0.00022870      -0.00064780      -0.00034833 </v>
   <v>      -0.00027209       0.00000653      -0.00000653 </v>
   <v>       0.00005865      -0.00000000       0.00006445 </v>
   <v>       0.00100083      -0.00068435      -0.00068435 </v>
   <v>      -0.00008793       0.00006729       0.00006729 </v>
   <v>       0.01290799      -0.00000000      -0.01432382 </v>
   <v>       0.00107238       0.00066081      -0.00066081 </v>
   <v>       0.00022870       0.00064780       0.00034833 </v>
   <v>       0.01290799      -0.01432382       0.00000000 </v>
   <v>       0.00190713      -0.00000000       0.00000000 </v>
   <v>       0.00003884      -0.00007204       0.00000000 </v>
   <v>      -0.00068506      -0.00002097       0.00000000 </v>
   <v>       0.00107238      -0.00066081       0.00066081 </v>
   <v>       0.00003884      -0.00000000      -0.00007204 </v>
   <v>      -0.00027209      -0.00000653      -0.00000653 </v>
   <v>       0.00022198      -0.00070833       0.00031703 </v>
   <v>       0.00022870       0.00034833       0.00064780 </v>
   <v>      -0.00068506      -0.00000000      -0.00002097 </v>
   <v>       0.00022198       0.00031703      -0.00070833 </v>
   <v>       0.00023867      -0.00000000       0.00000000 </v>
  </varray>
  <varray name="stress" >
   <v>     -88.96838021      -0.00000000      -0.00000000 </v>
   <v>       0.00000000     -88.96685953       0.00000000 </v>
   <v>       0.00000000       0.00000000     -88.96685953 </v>
  </varray>
  <energy>
   <i name="e_fr_energy">   -369.44126376 </i>
   <i name="e_wo_entrp">   -369.42944211 </i>
   <i name="e_0_energy">     -0.03546496 </i>
  </energy>
  <kpoints>
   <generation param="Gamma">
    <v type="int" name="divisions">       3        3        3 </v>
    <v name="usershift">      0.00000000       0.00000000       0.00000000 </v>
    <v name="genvec1">      0.33333333       0.00000000       0.00000000 </v>
    <v name="genvec2">      0.00000000       0.33333333       0.00000000 </v>
    <v name="genvec3">      0.00000000       0.00000000       0.33333333 </v>
    <v name="shift">      0.00000000       0.00000000       0.00000000 </v>
   </generation>
   <varray name="kpointlist" >
    <v>       0.00000000       0.00000000       0.00000000 </v>
    <v>       0.33333333       0.00000000       0.00000000 </v>
    <v>       0.33333333       0.33333333       0.00000000 </v>
    <v>      -0.33333333       0.33333333       0.00000000 </v>
    <v>       0.00000000       0.33333333       0.33333333 </v>
    <v>      -0.33333333       0.33333333       0.33333333 </v>
   </varray>
   <varray name="weights" >
    <v>       0.03703704 </v>
    <v>       0.29629630 </v>
    <v>       0.14814815 </v>
    <v>       0.29629630 </v>
    <v>       0.07407407 </v>
    <v>       0.14814815 </v>
   </varray>
  </kpoints>
  <time name="totalsc"> 3865.94 3863.01</time>
 </calculation>
 <calculation>
  <scstep>
   <time name="dav">  274.99  274.77</time>
   <time name="total">  287.01  286.79</time>
   <energy>
    <i name="alphaZ">   9415.99145534 </i>
    <i name="ewald">-151163.44274250 </i>
    <i name="hartreedc"> -60856.22638832 </i>
    <i name="XCdc">   5619.60294540 </i>
    <i name="pawpsdc"> 171424.38261396 </i>
    <i name="pawaedc">-180480.26383712 </i>
    <i name="eentropy">     -0.03541446 </i>
    <i name="bandstr"> -18345.75376180 </i>
    <i name="atom"> 224016.65216645 </i>
    <i name="e_fr_energy">   -369.09296305 </i>
    <i name="e_wo_entrp">   -369.05754859 </i>
    <i name="e_0_energy">   -369.08115823 </i>
   </energy>
  </scstep>
  <scstep>
   <time name="dav">  226.26  226.08</time>
   <time name="total">  238.35  238.17</time>
   <energy>
    <i name="e_fr_energy">   -369.45387710 </i>
    <i name="e_wo_entrp">   -369.41835184 </i>
    <i name="e_0_energy">   -369.44203534 </i>
   </energy>
  </scstep>
  <scstep>
   <time name="dav">  261.09  260.89</time>
   <time name="total">  273.44  273.23</time>
   <energy>
    <i name="e_fr_energy">   -369.44706344 </i>
    <i name="e_wo_entrp">   -369.41123244 </i>
    <i name="e_0_energy">   -369.43511977 </i>
   </energy>
  </scstep>
  <scstep>
   <time name="dav">  259.39  259.19</time>
   <time name="total">  271.30  271.09</time>
   <energy>
    <i name="e_fr_energy">   -369.45229008 </i>
    <i name="e_wo_entrp">   -369.41658707 </i>
    <i name="e_0_energy">   -369.44038908 </i>
   </energy>
  </scstep>
  <scstep>
   <time name="dav">  233.23  233.05</time>
   <time name="total">  245.17  244.98</time>
   <energy>
    <i name="e_fr_energy">   -369.44215640 </i>
    <i name="e_wo_entrp">   -369.40660952 </i>
    <i name="e_0_energy">   -369.43030744 </i>
   </energy>
  </scstep>
  <scstep>
   <time name="dav">  265.94  265.76</time>
   <time name="total">  277.64  277.45</time>
   <energy>
    <i name="e_fr_energy">   -369.44196679 </i>
    <i name="e_wo_entrp">   -369.40643538 </i>
    <i name="e_0_energy">   -369.43012299 </i>
   </energy>
  </scstep>
  <scstep>
   <time name="dav">  234.77  234.58</time>
   <time name="total">  246.24  246.04</time>
   <energy>
    <i name="e_fr_energy">   -369.44180492 </i>
    <i name="e_wo_entrp">   -369.40629845 </i>
    <i name="e_0_energy">   -369.42996943 </i>
   </energy>
  </scstep>
  <scstep>
   <time name="dav">  234.54  234.36</time>
   <time name="total">  245.76  245.57</time>
   <energy>
    <i name="e_fr_energy">   -369.44163983 </i>
    <i name="e_wo_entrp">   -369.40615522 </i>
    <i name="e_0_energy">   -369.42981163 </i>
   </energy>
  </scstep>
  <scstep>
   <time name="dav">  231.65  231.46</time>
   <time name="total">  243.10  242.91</time>
   <energy>
    <i name="e_fr_energy">   -369.44172454 </i>
    <i name="e_wo_entrp">   -369.40625771 </i>
    <i name="e_0_energy">   -369.42990227 </i>
   </energy>
  </scstep>
  <scstep>
   <time name="dav">  269.06  268.86</time>
   <time name="total">  280.22  280.21</time>
   <energy>
    <i name="e_fr_energy">   -369.44131066 </i>
    <i name="e_wo_entrp">   -369.40586756 </i>
    <i name="e_0_energy">   -369.42949629 </i>
   </energy>
  </scstep>
  <scstep>
   <time name="dav">  267.25  267.03</time>
   <time name="total">  278.79  278.56</time>
   <energy>
    <i name="e_fr_energy">   -369.44126732 </i>
    <i name="e_wo_entrp">   -369.40582285 </i>
    <i name="e_0_energy">   -369.42945250 </i>
   </energy>
  </scstep>
  <scstep>
   <time name="dav">  272.32  272.11</time>
   <time name="total">  283.48  283.26</time>
   <energy>
    <i name="e_fr_energy">   -369.44127974 </i>
    <i name="e_wo_entrp">   -369.40582791 </i>
    <i name="e_0_energy">   -369.42946247 </i>
   </energy>
  </scstep>
  <scstep>
   <time name="dav">  228.83  228.65</time>
   <time name="total">  240.38  240.19</time>
   <energy>
    <i name="e_fr_energy">   -369.44126352 </i>
    <i name="e_wo_entrp">   -369.40580614 </i>
    <i name="e_0_energy">   -369.42944439 </i>
   </energy>
  </scstep>
  <scstep>
   <time name="dav">  239.83  239.63</time>
   <time name="total">  250.94  250.74</time>
   <energy>
    <i name="e_fr_energy">   -369.44126863 </i>
    <i name="e_wo_entrp">   -369.40580782 </i>
    <i name="e_0_energy">   -369.42944836 </i>
   </energy>
  </scstep>
  <scstep>
   <time name="dav">  196.50  196.34</time>
   <time name="total">  207.62  207.46</time>
   <energy>
    <i name="e_fr_energy">   -369.44126369 </i>
    <i name="e_wo_entrp">   -369.40579901 </i>
    <i name="e_0_energy">   -369.42944213 </i>
   </energy>
  </scstep>
  <scstep>
   <time name="dav">  136.79  136.68</time>
   <time name="total">  137.37  137.26</time>
   <energy>
    <i name="alphaZ">   9415.99145534 </i>
    <i name="ewald">-151163.44274250 </i>
    <i name="hartreedc"> -60856.18256120 </i>
    <i name="XCdc">   5619.60047561 </i>
    <i name="pawpsdc"> 171424.39157896 </i>
    <i name="pawaedc">-180480.27400699 </i>
    <i name="eentropy">     -0.03546460 </i>
    <i name="bandstr"> -18346.14216506 </i>
    <i name="atom"> 224016.65216645 </i>
    <i name="e_fr_energy">   -369.44126397 </i>
    <i name="e_wo_entrp">   -369.40579938 </i>
    <i name="e_0_energy">   -369.42944244 </i>
   </energy>
  </scstep>
  <structure>
   <crystal>
    <varray name="basis" >
     <v>       0.00000000       7.15575000       7.15575000 </v>
     <v>       7.15575000       0.00000000       7.15575000 </v>
     <v>       7.15575000       7.15575000       0.00000000 </v>
    </varray>
    <i name="volume">    732.81689501 </i>
    <varray name="rec_basis" >
     <v>      -0.06987388       0.06987388       0.06987388 </v>
     <v>       0.06987388      -0.06987388       0.06987388 </v>
     <v>       0.06987388       0.06987388      -0.06987388 </v>
    </varray>
   </crystal>
   <varray name="positions" >
    <v>       0.00104811      -0.00104811      -0.00104811 </v>
    <v>       0.00000000       0.00000000       0.25000000 </v>
    <v>       0.00000000       0.00000000       0.50000000 </v>
    <v>       0.00000000       0.00000000       0.75000000 </v>
    <v>       0.00000000       0.25000000       0.00000000 </v>
    <v>       0.00000000       0.25000000       0.25000000 </v>
    <v>       0.00000000       0.25000000       0.50000000 </v>
    <v>       0.00000000       0.25000000       0.75000000 </v>
    <v>       0.00000000       0.50000000       0.00000000 </v>
    <v>       0.00000000       0.50000000       0.25000000 </v>
    <v>       0.00000000       0.50000000       0.50000000 </v>
    <v>       0.00000000       0.50000000       0.75000000 </v>
    <v>       0.00000000       0.75000000       0.00000000 </v>
    <v>       0.00000000       0.75000000       0.25000000 </v>
    <v>       0.00000000       0.75000000       0.50000000 </v>
    <v>       0.00000000       0.75000000       0.75000000 </v>
    <v>       0.25000000       0.00000000       0.00000000 </v>
    <v>       0.25000000       0.00000000       0.25000000 </v>
    <v>       0.25000000       0.00000000       0.50000000 </v>
    <v>       0.25000000       0.00000000       0.75000000 </v>
    <v>       0.25000000       0.25000000       0.00000000 </v>
    <v>       0.25000000       0.25000000       0.25000000 </v>
    <v>       0.25000000       0.25000000       0.50000000 </v>
    <v>       0.25000000       0.25000000       0.75000000 </v>
    <v>       0.25000000       0.50000000       0.00000000 </v>
    <v>       0.25000000       0.50000000       0.25000000 </v>
    <v>       0.25000000       0.50000000       0.50000000 </v>
    <v>       0.25000000       0.50000000       0.75000000 </v>
    <v>       0.25000000       0.75000000       0.00000000 </v>
    <v>       0.25000000       0.75000000       0.25000000 </v>
    <v>       0.25000000       0.75000000       0.50000000 </v>
    <v>       0.25000000       0.75000000       0.75000000 </v>
    <v>       0.50000000       0.00000000       0.00000000 </v>
    <v>       0.50000000       0.00000000       0.25000000 </v>
    <v>       0.50000000       0.00000000       0.50000000 </v>
    <v>       0.50000000       0.00000000       0.75000000 </v>
    <v>       0.50000000       0.25000000       0.00000000 </v>
    <v>       0.50000000       0.25000000       0.25000000 </v>
    <v>       0.50000000       0.25000000       0.50000000 </v>
    <v>       0.50000000       0.25000000       0.75000000 </v>
    <v>       0.50000000       0.50000000       0.00000000 </v>
    <v>       0.50000000       0.50000000       0.25000000 </v>
    <v>       0.50000000       0.50000000       0.50000000 </v>
    <v>       0.50000000       0.50000000       0.75000000 </v>
    <v>       0.50000000       0.75000000       0.00000000 </v>
    <v>       0.50000000       0.75000000       0.25000000 </v>
    <v>       0.50000000       0.75000000       0.50000000 </v>
    <v>       0.50000000       0.75000000       0.75000000 </v>
    <v>       0.75000000       0.00000000       0.00000000 </v>
    <v>       0.75000000       0.00000000       0.25000000 </v>
    <v>       0.75000000       0.00000000       0.50000000 </v>
    <v>       0.75000000       0.00000000       0.75000000 </v>
    <v>       0.75000000       0.25000000       0.00000000 </v>
    <v>       0.75000000       0.25000000       0.25000000 </v>
    <v>       0.75000000       0.25000000       0.50000000 </v>
    <v>       0.75000000       0.25000000       0.75000000 </v>
    <v>       0.75000000       0.50000000       0.00000000 </v>
    <v>       0.75000000       0.50000000       0.25000000 </v>
    <v>       0.75000000       0.50000000       0.50000000 </v>
    <v>       0.75000000       0.50000000       0.75000000 </v>
    <v>       0.75000000       0.75000000       0.00000000 </v>
    <v>       0.75000000       0.75000000       0.25000000 </v>
    <v>       0.75000000       0.75000000       0.50000000 </v>
    <v>       0.75000000       0.75000000       0.75000000 </v>
   </varray>
  </structure>
  <varray name="forces" >
   <v>       0.11278078      -0.00000000       0.00000000 </v>
   <v>      -0.01251998      -0.01384724       0.00000000 </v>
   <v>      -0.00016761      -0.00001630       0.00000000 </v>
   <v>      -0.01312774      -0.01466149       0.00000000 </v>
   <v>      -0.01251998      -0.00000000      -0.01384724 </v>
   <v>      -0.00105856      -0.00059844      -0.00059844 </v>
   <v>      -0.00022672      -0.00066139       0.00033611 </v>
   <v>       0.00032669       0.00011934      -0.00011934 </v>
   <v>      -0.00016761      -0.00000000      -0.00001630 </v>
   <v>      -0.00022672       0.00033611      -0.00066139 </v>
   <v>       0.00014133      -0.00000000       0.00000000 </v>
   <v>      -0.00016223       0.00028100      -0.00062577 </v>
   <v>      -0.01312774      -0.00000000      -0.01466149 </v>
   <v>       0.00032669      -0.00011934       0.00011934 </v>
   <v>      -0.00016223      -0.00062577       0.00028100 </v>
   <v>      -0.00109721      -0.00066656      -0.00066656 </v>
   <v>       0.00032669      -0.00011934      -0.00011934 </v>
   <v>      -0.00016223      -0.00062577      -0.00028100 </v>
   <v>      -0.00109721      -0.00066656       0.00066656 </v>
   <v>      -0.01312774      -0.00000000       0.01466149 </v>
   <v>      -0.00016223      -0.00028100      -0.00062577 </v>
   <v>      -0.00036751      -0.00000000       0.00000000 </v>
   <v>      -0.00022672      -0.00033611       0.00066139 </v>
   <v>       0.00079643      -0.00000000       0.00001786 </v>
   <v>      -0.00109721       0.00066656      -0.00066656 </v>
   <v>      -0.00022672       0.00066139      -0.00033611 </v>
   <v>       0.00040065      -0.00002179      -0.00002179 </v>
   <v>       0.00000392      -0.00000000       0.00003072 </v>
   <v>      -0.01312774       0.01466149       0.00000000 </v>
   <v>       0.00079643       0.00001786       0.00000000 </v>
   <v>       0.00000392       0.00003072       0.00000000 </v>
   <v>      -0.00198615      -0.00000000       0.00000000 </v>
   <v>       0.00014133      -0.00000000       0.00000000 </v>
   <v>      -0.00016223       0.00028100       0.00062577 </v>
   <v>      -0.00016761      -0.00000000       0.00001630 </v>
   <v>      -0.00022672       0.00033611       0.00066139 </v>
   <v>      -0.00016223       0.00062577       0.00028100 </v>
   <v>      -0.00105856       0.00059844       0.00059844 </v>
   <v>      -0.00004316      -0.00000000      -0.00008882 </v>
   <v>       0.00040065       0.00002179      -0.00002179 </v>
   <v>      -0.00016761       0.00001630       0.00000000 </v>
   <v>      -0.00004316      -0.00008882       0.00000000 </v>
   <v>       0.00072238      -0.00000000       0.00000000 </v>
   <v>       0.00000392      -0.00003072       0.00000000 </v>
   <v>      -0.00022672       0.00066139       0.00033611 </v>
   <v>       0.00040065      -0.00002179       0.00002179 </v>
   <v>       0.00000392      -0.00000000      -0.00003072 </v>
   <v>      -0.00109721       0.00066656       0.00066656 </v>
   <v>       0.00032669       0.00011934       0.00011934 </v>
   <v>      -0.01251998      -0.00000000       0.01384724 </v>
   <v>      -0.00105856      -0.00059844       0.00059844 </v>
   <v>      -0.00022672      -0.00066139      -0.00033611 </v>
   <v>      -0.01251998       0.01384724       0.00000000 </v>
   <v>      -0.00200680      -0.00000000       0.00000000 </v>
   <v>      -0.00004316       0.00008882       0.00000000 </v>
   <v>       0.00079643      -0.00001786       0.00000000 </v>
   <v>      -0.00105856       0.00059844      -0.00059844 </v>
   <v>      -0.00004316      -0.00000000       0.00008882 </v>
   <v>       0.00040065       0.00002179       0.00002179 </v>
   <v>      -0.00016223       0.00062577      -0.00028100 </v>
   <v>      -0.00022672      -0.00033611      -0.00066139 </v>
   <v>       0.00079643      -0.00000000      -0.00001786 </v>
   <v>      -0.00016223      -0.00028100       0.00062577 </v>
   <v>      -0.00036751      -0.00000000       0.00000000 </v>
  </varray>
  <varray name="stress" >
   <v>     -88.99982458      -0.00000000       0.00000000 </v>
   <v>      -0.00000000     -88.99452036       0.00000000 </v>
   <v>       0.00000000       0.00000000     -88.99452036 </v>
  </varray>
  <energy>
   <i name="e_fr_energy">   -369.44126397 </i>
   <i name="e_wo_entrp">   -369.42944244 </i>
   <i name="e_0_energy">     -0.03546460 </i>
  </energy>
  <dynmat>
   <varray name="hessian" >
    <v>      -0.12808961       0.00000000       0.00000000       0.01441626       0.01598001       0.00000000       0.00016444       0.00005405       0.00000000       0.01441626       0.01598001      -0.00000000       0.01441626       0.00000000       0.01598001       0.00120094       0.00074593       0.00074593       0.00023844       0.00074593      -0.00036419      -0.00023548       0.00000000      -0.00000000       0.00016444      -0.00000000       0.00005405       0.00023844      -0.00036419       0.00074593      -0.00007693      -0.00000000      -0.00000000       0.00023844      -0.00036419       0.00074593       0.01441626      -0.00000000       0.01598001      -0.00023548      -0.00000000       0.00000000       0.00023844       0.00074593      -0.00036419       0.00120094       0.00074593       0.00074593      -0.00023548      -0.00000000      -0.00000000       0.00023844       0.00074593       0.00036419       0.00120094       0.00074593      -0.00074593       0.01441626      -0.00000000      -0.01598001       0.00023844       0.00036419       0.00074593       0.00034428       0.00000000       0.00000000       0.00023844       0.00036419      -0.00074593      -0.00084142       0.00000000       0.00000000       0.00120094      -0.00074593       0.00074593       0.00023844      -0.00074593       0.00036419      -0.00038209      -0.00000000       0.00000000       0.00003883       0.00000000      -0.00007271       0.01441626      -0.01598001      -0.00000000      -0.00084142      -0.00000000       0.00000000       0.00003883      -0.00007271       0.00000000       0.00220961       0.00000000      -0.00000000      -0.00007693      -0.00000000       0.00000000       0.00023844      -0.00036419      -0.00074593       0.00016444      -0.00000000      -0.00005405       0.00023844      -0.00036419      -0.00074593       0.00023844      -0.00074593      -0.00036419       0.00120094      -0.00074593      -0.00074593       0.00003883      -0.00000000       0.00007271      -0.00038209       0.00000000       0.00000000       0.00016444      -0.00005405       0.00000000       0.00003883       0.00007271       0.00000000      -0.00074930       0.00000000      -0.00000000       0.00003883       0.00007271       0.00000000       0.00023844      -0.00074593      -0.00036419      -0.00038209      -0.00000000      -0.00000000       0.00003883      -0.00000000       0.00007271       0.00120094      -0.00074593      -0.00074593      -0.00023548       0.00000000       0.00000000       0.01441626       0.00000000      -0.01598001       0.00120094       0.00074593      -0.00074593       0.00023844       0.00074593       0.00036419       0.01441626      -0.01598001       0.00000000       0.00220961       0.00000000      -0.00000000       0.00003883      -0.00007271      -0.00000000      -0.00084142      -0.00000000       0.00000000       0.00120094      -0.00074593       0.00074593       0.00003883      -0.00000000      -0.00007271      -0.00038209       0.00000000       0.00000000       0.00023844      -0.00074593       0.00036419       0.00023844       0.00036419       0.00074593      -0.00084142       0.00000000       0.00000000       0.00023844       0.00036419      -0.00074593       0.00034428       0.00000000       0.00000000 </v>
    <v>       0.00000000      -0.12808961       0.00000000       0.01598001       0.01441626       0.00000000       0.00005405       0.00016444       0.00000000       0.01598001       0.01441626      -0.00000000      -0.00000000      -0.00023548      -0.00000000       0.00074593       0.00023844       0.00036419       0.00074593       0.00120094      -0.00074593      -0.00000000       0.01441626      -0.01598001      -0.00000000      -0.00007693       0.00000000      -0.00036419       0.00023844      -0.00074593      -0.00000000       0.00016444      -0.00005405      -0.00036419       0.00023844      -0.00074593       0.00000000      -0.00023548       0.00000000       0.00000000       0.01441626      -0.01598001       0.00074593       0.00120094      -0.00074593       0.00074593       0.00023844       0.00036419       0.00000000       0.01441626       0.01598001       0.00074593       0.00120094       0.00074593       0.00074593       0.00023844      -0.00036419       0.00000000      -0.00023548      -0.00000000       0.00036419       0.00023844       0.00074593       0.00000000       0.00034428       0.00000000       0.00036419       0.00023844      -0.00074593       0.00000000      -0.00084142      -0.00000000      -0.00074593       0.00023844      -0.00036419      -0.00074593       0.00120094      -0.00074593       0.00000000       0.00003883       0.00007271      -0.00000000      -0.00038209       0.00000000      -0.01598001       0.01441626       0.00000000      -0.00000000       0.00220961       0.00000000      -0.00007271       0.00003883       0.00000000       0.00000000      -0.00084142       0.00000000      -0.00000000       0.00016444       0.00005405      -0.00036419       0.00023844       0.00074593      -0.00000000      -0.00007693      -0.00000000      -0.00036419       0.00023844       0.00074593      -0.00074593       0.00120094       0.00074593      -0.00074593       0.00023844       0.00036419      -0.00000000      -0.00038209      -0.00000000      -0.00000000       0.00003883      -0.00007271      -0.00005405       0.00016444       0.00000000       0.00007271       0.00003883      -0.00000000       0.00000000      -0.00074930      -0.00000000       0.00007271       0.00003883      -0.00000000      -0.00074593       0.00120094       0.00074593       0.00000000       0.00003883      -0.00007271      -0.00000000      -0.00038209      -0.00000000      -0.00074593       0.00023844       0.00036419      -0.00000000       0.01441626       0.01598001      -0.00000000      -0.00023548       0.00000000       0.00074593       0.00023844      -0.00036419       0.00074593       0.00120094       0.00074593      -0.01598001       0.01441626      -0.00000000       0.00000000      -0.00084142       0.00000000      -0.00007271       0.00003883      -0.00000000      -0.00000000       0.00220961       0.00000000      -0.00074593       0.00023844      -0.00036419       0.00000000      -0.00038209      -0.00000000      -0.00000000       0.00003883       0.00007271      -0.00074593       0.00120094      -0.00074593       0.00036419       0.00023844       0.00074593       0.00000000      -0.00084142      -0.00000000       0.00036419       0.00023844      -0.00074593       0.00000000       0.00034428       0.00000000 </v>
    <v>       0.00000000       0.00000000      -0.12808961      -0.00000000      -0.00000000      -0.00023548       0.00000000       0.00000000      -0.00007693       0.00000000       0.00000000      -0.00023548       0.01598001       0.00000000       0.01441626       0.00074593       0.00036419       0.00023844      -0.00036419      -0.00074593       0.00023844       0.00000000      -0.01598001       0.01441626       0.00005405       0.00000000       0.00016444       0.00074593      -0.00074593       0.00120094      -0.00000000      -0.00005405       0.00016444       0.00074593      -0.00074593       0.00120094       0.01598001      -0.00000000       0.01441626      -0.00000000      -0.01598001       0.01441626      -0.00036419      -0.00074593       0.00023844       0.00074593       0.00036419       0.00023844       0.00000000       0.01598001       0.01441626       0.00036419       0.00074593       0.00023844      -0.00074593      -0.00036419       0.00023844      -0.01598001       0.00000000       0.01441626       0.00074593       0.00074593       0.00120094       0.00000000       0.00000000       0.00034428      -0.00074593      -0.00074593       0.00120094       0.00000000      -0.00000000       0.00220961       0.00074593      -0.00036419       0.00023844       0.00036419      -0.00074593       0.00023844       0.00000000       0.00007271       0.00003883      -0.00007271      -0.00000000       0.00003883       0.00000000      -0.00000000      -0.00023548       0.00000000       0.00000000      -0.00084142      -0.00000000      -0.00000000      -0.00038209      -0.00000000       0.00000000      -0.00084142       0.00000000       0.00005405       0.00016444      -0.00074593       0.00074593       0.00120094      -0.00005405      -0.00000000       0.00016444      -0.00074593       0.00074593       0.00120094      -0.00036419       0.00074593       0.00023844      -0.00074593       0.00036419       0.00023844       0.00007271      -0.00000000       0.00003883      -0.00000000      -0.00007271       0.00003883       0.00000000       0.00000000      -0.00007693       0.00000000      -0.00000000      -0.00038209      -0.00000000      -0.00000000      -0.00074930       0.00000000      -0.00000000      -0.00038209      -0.00036419       0.00074593       0.00023844       0.00000000      -0.00007271       0.00003883       0.00007271      -0.00000000       0.00003883      -0.00074593       0.00036419       0.00023844      -0.00000000       0.01598001       0.01441626      -0.01598001      -0.00000000       0.01441626      -0.00074593      -0.00036419       0.00023844       0.00036419       0.00074593       0.00023844      -0.00000000       0.00000000      -0.00023548      -0.00000000       0.00000000      -0.00084142       0.00000000       0.00000000      -0.00038209       0.00000000       0.00000000      -0.00084142       0.00074593      -0.00036419       0.00023844      -0.00007271       0.00000000       0.00003883       0.00000000       0.00007271       0.00003883       0.00036419      -0.00074593       0.00023844       0.00074593       0.00074593       0.00120094       0.00000000      -0.00000000       0.00220961      -0.00074593      -0.00074593       0.00120094       0.00000000       0.00000000       0.00034428 </v>
[...]
       <r>    22.1098     0.0000   648.0000 </r>
       <r>    22.3931     0.0000   648.0000 </r>
       <r>    22.6764     0.0000   648.0000 </r>
       <r>    22.9597     0.0000   648.0000 </r>
       <r>    23.2430     0.0000   648.0000 </r>
       <r>    23.5262     0.0000   648.0000 </r>
       <r>    23.8095     0.0000   648.0000 </r>
       <r>    24.0928     0.0000   648.0000 </r>
       <r>    24.3761     0.0000   648.0000 </r>
      </set>
      <set comment="spin 2">
       <r>   -60.6071     0.0000     0.0000 </r>
       <r>   -60.3239     0.0000     0.0000 </r>
       <r>   -60.0406     0.0000     0.0000 </r>
       <r>   -59.7573     0.0000     0.0000 </r>
       <r>   -59.4740     0.0000     0.0000 </r>
       <r>   -59.1907     0.0000     0.0000 </r>
       <r>   -58.9075     0.0000     0.0000 </r>
       <r>   -58.6242     0.0000     0.0000 </r>
       <r>   -58.3409     0.0000     0.0000 </r>
       <r>   -58.0576     0.0000     0.0000 </r>
       <r>   -57.7744     0.0000     0.0000 </r>
       <r>   -57.4911    -0.0000    -0.0000 </r>
       <r>   -57.2078    -0.0000    -0.0000 </r>
       <r>   -56.9245    -0.0000    -0.0000 </r>
       <r>   -56.6413    -0.0000    -0.0000 </r>
       <r>   -56.3580    -0.0857    -0.0243 </r>
       <r>   -56.0747   -13.2668    -3.7825 </r>
       <r>   -55.7914   217.8697    57.9351 </r>
       <r>   -55.5081   489.1538   196.5013 </r>
       <r>   -55.2249   -15.0002   192.2520 </r>
       <r>   -54.9416    -0.8895   192.0001 </r>
       <r>   -54.6583    -0.0003   192.0000 </r>
       <r>   -54.3750    -0.0000   192.0000 </r>
       <r>   -54.0918     0.0000   192.0000 </r>
       <r>   -53.8085     0.0000   192.0000 </r>
       <r>   -53.5252     0.0000   192.0000 </r>
       <r>   -53.2419     0.0000   192.0000 </r>
       <r>   -52.9586     0.0000   192.0000 </r>
       <r>   -52.6754     0.0000   192.0000 </r>
       <r>   -52.3921     0.0000   192.0000 </r>
       <r>   -52.1088     0.0000   192.0000 </r>
       <r>   -51.8255     0.0000   192.0000 </r>
       <r>   -51.5423     0.0000   192.0000 </r>
       <r>   -51.2590     0.0000   192.0000 </r>
       <r>   -50.9757     0.0000   192.0000 </r>
       <r>   -50.6924     0.0000   192.0000 </r>
       <r>   -50.4092     0.0000   192.0000 </r>
       <r>   -50.1259     0.0000   192.0000 </r>
       <r>   -49.8426     0.0000   192.0000 </r>
       <r>   -49.5593     0.0000   192.0000 </r>
       <r>   -49.2760     0.0000   192.0000 </r>
       <r>   -48.9928     0.0000   192.0000 </r>
       <r>   -48.7095     0.0000   192.0000 </r>
       <r>   -48.4262     0.0000   192.0000 </r>
       <r>   -48.1429     0.0000   192.0000 </r>
       <r>   -47.8597     0.0000   192.0000 </r>
       <r>   -47.5764     0.0000   192.0000 </r>
       <r>   -47.2931     0.0000   192.0000 </r>
       <r>   -47.0098     0.0000   192.0000 </r>
       <r>   -46.7265     0.0000   192.0000 </r>
       <r>   -46.4433     0.0000   192.0000 </r>
       <r>   -46.1600     0.0000   192.0000 </r>
       <r>   -45.8767     0.0000   192.0000 </r>
       <r>   -45.5934     0.0000   192.0000 </r>
       <r>   -45.3102     0.0000   192.0000 </r>
       <r>   -45.0269     0.0000   192.0000 </r>
       <r>   -44.7436     0.0000   192.0000 </r>
       <r>   -44.4603     0.0000   192.0000 </r>
       <r>   -44.1771     0.0000   192.0000 </r>
       <r>   -43.8938     0.0000   192.0000 </r>
       <r>   -43.6105     0.0000   192.0000 </r>
       <r>   -43.3272     0.0000   192.0000 </r>
       <r>   -43.0439     0.0000   192.0000 </r>
       <r>   -42.7607     0.0000   192.0000 </r>
       <r>   -42.4774     0.0000   192.0000 </r>
       <r>   -42.1941     0.0000   192.0000 </r>
       <r>   -41.9108     0.0000   192.0000 </r>
       <r>   -41.6276     0.0000   192.0000 </r>
       <r>   -41.3443     0.0000   192.0000 </r>
       <r>   -41.0610     0.0000   192.0000 </r>
       <r>   -40.7777     0.0000   192.0000 </r>
       <r>   -40.4944     0.0000   192.0000 </r>
       <r>   -40.2112     0.0000   192.0000 </r>
       <r>   -39.9279     0.0000   192.0000 </r>
       <r>   -39.6446     0.0000   192.0000 </r>
       <r>   -39.3613     0.0000   192.0000 </r>
       <r>   -39.0781     0.0000   192.0000 </r>
       <r>   -38.7948     0.0000   192.0000 </r>
       <r>   -38.5115     0.0000   192.0000 </r>
       <r>   -38.2282     0.0000   192.0000 </r>
       <r>   -37.9449     0.0000   192.0000 </r>
       <r>   -37.6617     0.0000   192.0000 </r>
       <r>   -37.3784     0.0000   192.0000 </r>
       <r>   -37.0951     0.0000   192.0000 </r>
       <r>   -36.8118     0.0000   192.0000 </r>
       <r>   -36.5286     0.0000   192.0000 </r>
       <r>   -36.2453     0.0000   192.0000 </r>
       <r>   -35.9620     0.0000   192.0000 </r>
       <r>   -35.6787     0.0000   192.0000 </r>
       <r>   -35.3955     0.0000   192.0000 </r>
       <r>   -35.1122     0.0000   192.0000 </r>
       <r>   -34.8289     0.0000   192.0000 </r>
       <r>   -34.5456     0.0000   192.0000 </r>
       <r>   -34.2623     0.0000   192.0000 </r>
       <r>   -33.9791     0.0000   192.0000 </r>
       <r>   -33.6958     0.0000   192.0000 </r>
       <r>   -33.4125     0.0000   192.0000 </r>
       <r>   -33.1292     0.0000   192.0000 </r>
       <r>   -32.8460     0.0000   192.0000 </r>
       <r>   -32.5627     0.0000   192.0000 </r>
       <r>   -32.2794     0.0000   192.0000 </r>
       <r>   -31.9961     0.0000   192.0000 </r>
       <r>   -31.7128     0.0000   192.0000 </r>
       <r>   -31.4296     0.0000   192.0000 </r>
       <r>   -31.1463     0.0000   192.0000 </r>
       <r>   -30.8630     0.0000   192.0000 </r>
       <r>   -30.5797     0.0000   192.0000 </r>
       <r>   -30.2965     0.0000   192.0000 </r>
       <r>   -30.0132     0.0000   192.0000 </r>
       <r>   -29.7299     0.0000   192.0000 </r>
       <r>   -29.4466     0.0000   192.0000 </r>
       <r>   -29.1634     0.0000   192.0000 </r>
       <r>   -28.8801     0.0000   192.0000 </r>
       <r>   -28.5968     0.0000   192.0000 </r>
       <r>   -28.3135     0.0000   192.0000 </r>
       <r>   -28.0302     0.0000   192.0000 </r>
       <r>   -27.7470     0.0000   192.0000 </r>
       <r>   -27.4637     0.0000   192.0000 </r>
       <r>   -27.1804     0.0000   192.0000 </r>
       <r>   -26.8971     0.0000   192.0000 </r>
       <r>   -26.6139     0.0000   192.0000 </r>
       <r>   -26.3306     0.0000   192.0000 </r>
       <r>   -26.0473     0.0000   192.0000 </r>
       <r>   -25.7640     0.0000   192.0000 </r>
       <r>   -25.4807     0.0000   192.0000 </r>
       <r>   -25.1975     0.0000   192.0000 </r>
       <r>   -24.9142     0.0000   192.0000 </r>
       <r>   -24.6309     0.0000   192.0000 </r>
       <r>   -24.3476     0.0000   192.0000 </r>
       <r>   -24.0644     0.0000   192.0000 </r>
       <r>   -23.7811     0.0000   192.0000 </r>
       <r>   -23.4978     0.0000   192.0000 </r>
       <r>   -23.2145     0.0000   192.0000 </r>
       <r>   -22.9313     0.0000   192.0000 </r>
       <r>   -22.6480     0.0000   192.0000 </r>
       <r>   -22.3647     0.0000   192.0000 </r>
       <r>   -22.0814     0.0000   192.0000 </r>
       <r>   -21.7981     0.0000   192.0000 </r>
       <r>   -21.5149     0.0000   192.0000 </r>
       <r>   -21.2316     0.0000   192.0000 </r>
       <r>   -20.9483     0.0000   192.0000 </r>
       <r>   -20.6650     0.0000   192.0000 </r>
       <r>   -20.3818     0.0000   192.0000 </r>
       <r>   -20.0985     0.0000   192.0000 </r>
       <r>   -19.8152     0.0000   192.0000 </r>
       <r>   -19.5319     0.0000   192.0000 </r>
       <r>   -19.2486     0.0000   192.0000 </r>
       <r>   -18.9654     0.0000   192.0000 </r>
       <r>   -18.6821     0.0000   192.0000 </r>
       <r>   -18.3988     0.0000   192.0000 </r>
       <r>   -18.1155     0.0000   192.0000 </r>
       <r>   -17.8323     0.0000   192.0000 </r>
       <r>   -17.5490     0.0000   192.0000 </r>
       <r>   -17.2657     0.0000   192.0000 </r>
       <r>   -16.9824     0.0000   192.0000 </r>
       <r>   -16.6991     0.0000   192.0000 </r>
       <r>   -16.4159     0.0000   192.0000 </r>
       <r>   -16.1326     0.0000   192.0000 </r>
       <r>   -15.8493     0.0000   192.0000 </r>
       <r>   -15.5660     0.0000   192.0000 </r>
       <r>   -15.2828     0.0000   192.0000 </r>
       <r>   -14.9995     0.0000   192.0000 </r>
       <r>   -14.7162     0.0000   192.0000 </r>
       <r>   -14.4329     0.0000   192.0000 </r>
       <r>   -14.1497     0.0000   192.0000 </r>
       <r>   -13.8664     0.0000   192.0000 </r>
       <r>   -13.5831     0.0000   192.0000 </r>
       <r>   -13.2998     0.0000   192.0000 </r>
       <r>   -13.0165     0.0000   192.0000 </r>
       <r>   -12.7333     0.0000   192.0000 </r>
       <r>   -12.4500     0.0000   192.0000 </r>
       <r>   -12.1667     0.0000   192.0000 </r>
       <r>   -11.8834     0.0000   192.0000 </r>
       <r>   -11.6002     0.0000   192.0000 </r>
       <r>   -11.3169     0.0000   192.0000 </r>
       <r>   -11.0336     0.0000   192.0000 </r>
       <r>   -10.7503     0.0000   192.0000 </r>
       <r>   -10.4670     0.0000   192.0000 </r>
       <r>   -10.1838     0.0000   192.0000 </r>
       <r>    -9.9005     0.0000   192.0000 </r>
       <r>    -9.6172     0.0000   192.0000 </r>
       <r>    -9.3339     0.0000   192.0000 </r>
       <r>    -9.0507     0.0000   192.0000 </r>
       <r>    -8.7674     0.0000   192.0000 </r>
       <r>    -8.4841     0.0000   192.0000 </r>
       <r>    -8.2008     0.0000   192.0000 </r>
       <r>    -7.9176     0.0000   192.0000 </r>
       <r>    -7.6343     0.0000   192.0000 </r>
       <r>    -7.3510     0.0000   192.0000 </r>
       <r>    -7.0677     0.0000   192.0000 </r>
       <r>    -6.7844     0.0000   192.0000 </r>
       <r>    -6.5012     0.0000   192.0000 </r>
       <r>    -6.2179     0.0000   192.0000 </r>
       <r>    -5.9346     0.0000   192.0000 </r>
       <r>    -5.6513     0.0000   192.0000 </r>
       <r>    -5.3681     0.0000   192.0000 </r>
       <r>    -5.0848     0.0000   192.0000 </r>
       <r>    -4.8015     0.0000   192.0000 </r>
       <r>    -4.5182     0.0000   192.0000 </r>
       <r>    -4.2349     0.0000   192.0000 </r>
       <r>    -3.9517     0.0000   192.0000 </r>
       <r>    -3.6684     0.0000   192.0000 </r>
       <r>    -3.3851    -0.0000   192.0000 </r>
       <r>    -3.1018    -0.0000   192.0000 </r>
       <r>    -2.8186    -0.0000   192.0000 </r>
       <r>    -2.5353    -0.0000   192.0000 </r>
       <r>    -2.2520    -0.0000   192.0000 </r>
       <r>    -1.9687    -0.0003   191.9999 </r>
       <r>    -1.6854    -0.0057   191.9983 </r>
       <r>    -1.4022     0.1039   192.0277 </r>
       <r>    -1.1189     1.4764   192.4459 </r>
       <r>    -0.8356     0.9397   192.7121 </r>
       <r>    -0.5523     3.0060   193.5637 </r>
       <r>    -0.2691     2.3233   194.2218 </r>
       <r>     0.0142     1.3785   194.6123 </r>
       <r>     0.2975     5.4046   196.1433 </r>
       <r>     0.5808     3.3127   197.0817 </r>
       <r>     0.8640     4.0663   198.2336 </r>
       <r>     1.1473     1.5203   198.6643 </r>
       <r>     1.4306     9.5214   201.3614 </r>
       <r>     1.7139     4.5272   202.6439 </r>
       <r>     1.9972     5.9747   204.3364 </r>
       <r>     2.2804     4.0490   205.4834 </r>
       <r>     2.5637    12.3012   208.9680 </r>
       <r>     2.8470    12.5396   212.5202 </r>
       <r>     3.1303    11.6550   215.8218 </r>
       <r>     3.4135    26.7592   223.4021 </r>
       <r>     3.6968    38.8708   234.4133 </r>
       <r>     3.9801    28.2771   242.4235 </r>
       <r>     4.2634    56.2195   258.3492 </r>
       <r>     4.5467    58.8482   275.0196 </r>
       <r>     4.8299    53.2550   290.1055 </r>
       <r>     5.1132    60.6125   307.2757 </r>
       <r>     5.3965    79.2851   329.7353 </r>
       <r>     5.6798    91.5782   355.6774 </r>
       <r>     5.9630    98.9961   383.7207 </r>
       <r>     6.2463    74.3737   404.7891 </r>
       <r>     6.5296    78.9682   427.1590 </r>
       <r>     6.8129    83.1503   450.7136 </r>
       <r>     7.0961    82.8942   474.1956 </r>
       <r>     7.3794   101.4532   502.9350 </r>
       <r>     7.6627    86.0348   527.3067 </r>
       <r>     7.9460    25.8400   534.6266 </r>
       <r>     8.2293    11.5081   537.8866 </r>
       <r>     8.5125     4.8207   539.2522 </r>
       <r>     8.7958    14.5076   543.3619 </r>
       <r>     9.0791    12.0390   546.7722 </r>
       <r>     9.3624    11.7480   550.1002 </r>
       <r>     9.6456     5.0585   551.5331 </r>
       <r>     9.9289     9.3519   554.1823 </r>
       <r>    10.2122    11.1904   557.3523 </r>
       <r>    10.4955     7.6842   559.5291 </r>
       <r>    10.7788     9.9708   562.3536 </r>
       <r>    11.0620     3.2107   563.2631 </r>
       <r>    11.3453    12.8371   566.8995 </r>
       <r>    11.6286     3.2625   567.8237 </r>
       <r>    11.9119    -0.2430   567.7549 </r>
       <r>    12.1951    10.0823   570.6110 </r>
       <r>    12.4784     5.3621   572.1299 </r>
       <r>    12.7617     3.2562   573.0524 </r>
       <r>    13.0450     5.7023   574.6677 </r>
       <r>    13.3282    11.7043   577.9832 </r>
       <r>    13.6115     8.6140   580.4234 </r>
       <r>    13.8948     9.4731   583.1069 </r>
       <r>    14.1781     7.2480   585.1601 </r>
       <r>    14.4614     8.2030   587.4838 </r>
       <r>    14.7446    11.5585   590.7581 </r>
       <r>    15.0279     5.9681   592.4487 </r>
       <r>    15.3112    12.7886   596.0714 </r>
       <r>    15.5945     9.9609   598.8931 </r>
       <r>    15.8777     3.2936   599.8261 </r>
       <r>    16.1610     7.8173   602.0406 </r>
       <r>    16.4443     9.5624   604.7494 </r>
       <r>    16.7276     7.0697   606.7521 </r>
       <r>    17.0109     9.7153   609.5042 </r>
       <r>    17.2941     8.8173   612.0020 </r>
       <r>    17.5774    12.7332   615.6090 </r>
       <r>    17.8607    18.4056   620.8229 </r>
       <r>    18.1440    11.8324   624.1747 </r>
       <r>    18.4272     9.4194   626.8430 </r>
       <r>    18.7105    13.2201   630.5880 </r>
       <r>    18.9938    13.6849   634.4646 </r>
       <r>    19.2771     3.7240   635.5196 </r>
       <r>    19.5604    16.3431   640.1492 </r>
       <r>    19.8436     9.4376   642.8227 </r>
       <r>    20.1269    10.8151   645.8863 </r>
       <r>    20.4102     4.5534   647.1762 </r>
       <r>    20.6935     3.0631   648.0439 </r>
       <r>    20.9767    -0.1520   648.0008 </r>
       <r>    21.2600    -0.0029   648.0000 </r>
       <r>    21.5433    -0.0000   648.0000 </r>
       <r>    21.8266    -0.0000   648.0000 </r>
       <r>    22.1098     0.0000   648.0000 </r>
       <r>    22.3931     0.0000   648.0000 </r>
       <r>    22.6764     0.0000   648.0000 </r>
       <r>    22.9597     0.0000   648.0000 </r>
       <r>    23.2430     0.0000   648.0000 </r>
       <r>    23.5262     0.0000   648.0000 </r>
       <r>    23.8095     0.0000   648.0000 </r>
       <r>    24.0928     0.0000   648.0000 </r>
       <r>    24.3761     0.0000   648.0000 </r>
      </set>
     </set>
    </array>
   </total>
  </dos>
 </calculation>
 <structure name="finalpos" >
  <crystal>
   <varray name="basis" >
    <v>       0.00000000       7.15575000       7.15575000 </v>
    <v>       7.15575000       0.00000000       7.15575000 </v>
    <v>       7.15575000       7.15575000       0.00000000 </v>
   </varray>
   <i name="volume">    732.81689501 </i>
   <varray name="rec_basis" >
    <v>      -0.06987388       0.06987388       0.06987388 </v>
    <v>       0.06987388      -0.06987388       0.06987388 </v>
    <v>       0.06987388       0.06987388      -0.06987388 </v>
   </varray>
  </crystal>
  <varray name="positions" >
   <v>       0.00104811      -0.00104811      -0.00104811 </v>
   <v>       0.00000000       0.00000000       0.25000000 </v>
   <v>       0.00000000       0.00000000       0.50000000 </v>
   <v>       0.00000000       0.00000000       0.75000000 </v>
   <v>       0.00000000       0.25000000       0.00000000 </v>
   <v>       0.00000000       0.25000000       0.25000000 </v>
   <v>       0.00000000       0.25000000       0.50000000 </v>
   <v>       0.00000000       0.25000000       0.75000000 </v>
   <v>       0.00000000       0.50000000       0.00000000 </v>
   <v>       0.00000000       0.50000000       0.25000000 </v>
   <v>       0.00000000       0.50000000       0.50000000 </v>
   <v>       0.00000000       0.50000000       0.75000000 </v>
   <v>       0.00000000       0.75000000       0.00000000 </v>
   <v>       0.00000000       0.75000000       0.25000000 </v>
   <v>       0.00000000       0.75000000       0.50000000 </v>
   <v>       0.00000000       0.75000000       0.75000000 </v>
   <v>       0.25000000       0.00000000       0.00000000 </v>
   <v>       0.25000000       0.00000000       0.25000000 </v>
   <v>       0.25000000       0.00000000       0.50000000 </v>
   <v>       0.25000000       0.00000000       0.75000000 </v>
   <v>       0.25000000       0.25000000       0.00000000 </v>
   <v>       0.25000000       0.25000000       0.25000000 </v>
   <v>       0.25000000       0.25000000       0.50000000 </v>
   <v>       0.25000000       0.25000000       0.75000000 </v>
   <v>       0.25000000       0.50000000       0.00000000 </v>
   <v>       0.25000000       0.50000000       0.25000000 </v>
   <v>       0.25000000       0.50000000       0.50000000 </v>
   <v>       0.25000000       0.50000000       0.75000000 </v>
   <v>       0.25000000       0.75000000       0.00000000 </v>
   <v>       0.25000000       0.75000000       0.25000000 </v>
   <v>       0.25000000       0.75000000       0.50000000 </v>
   <v>       0.25000000       0.75000000       0.75000000 </v>
   <v>       0.50000000       0.00000000       0.00000000 </v>
   <v>       0.50000000       0.00000000       0.25000000 </v>
   <v>       0.50000000       0.00000000       0.50000000 </v>
   <v>       0.50000000       0.00000000       0.75000000 </v>
   <v>       0.50000000       0.25000000       0.00000000 </v>
   <v>       0.50000000       0.25000000       0.25000000 </v>
   <v>       0.50000000       0.25000000       0.50000000 </v>
   <v>       0.50000000       0.25000000       0.75000000 </v>
   <v>       0.50000000       0.50000000       0.00000000 </v>
   <v>       0.50000000       0.50000000       0.25000000 </v>
   <v>       0.50000000       0.50000000       0.50000000 </v>
   <v>       0.50000000       0.50000000       0.75000000 </v>
   <v>       0.50000000       0.75000000       0.00000000 </v>
   <v>       0.50000000       0.75000000       0.25000000 </v>
   <v>       0.50000000       0.75000000       0.50000000 </v>
   <v>       0.50000000       0.75000000       0.75000000 </v>
   <v>       0.75000000       0.00000000       0.00000000 </v>
   <v>       0.75000000       0.00000000       0.25000000 </v>
   <v>       0.75000000       0.00000000       0.50000000 </v>
   <v>       0.75000000       0.00000000       0.75000000 </v>
   <v>       0.75000000       0.25000000       0.00000000 </v>
   <v>       0.75000000       0.25000000       0.25000000 </v>
   <v>       0.75000000       0.25000000       0.50000000 </v>
   <v>       0.75000000       0.25000000       0.75000000 </v>
   <v>       0.75000000       0.50000000       0.00000000 </v>
   <v>       0.75000000       0.50000000       0.25000000 </v>
   <v>       0.75000000       0.50000000       0.50000000 </v>
   <v>       0.75000000       0.50000000       0.75000000 </v>
   <v>       0.75000000       0.75000000       0.00000000 </v>
   <v>       0.75000000       0.75000000       0.25000000 </v>
   <v>       0.75000000       0.75000000       0.50000000 </v>
   <v>       0.75000000       0.75000000       0.75000000 </v>
  </varray>
 </structure>
</modeling>
