       N       E                     dE             d eps       ncg     rms          rms(c)
DAV:   1     0.150750490638E+05    0.15075E+05   -0.62056E+05 11728   0.209E+03
DAV:   2     0.920639007173E+03   -0.14154E+05   -0.13784E+05 10368   0.681E+02
DAV:   3    -0.336969090775E+03   -0.12576E+04   -0.10458E+04 10584   0.221E+02
DAV:   4    -0.411792192534E+03   -0.74823E+02   -0.72080E+02 11120   0.525E+01
DAV:   5    -0.413133776965E+03   -0.13416E+01   -0.13393E+01 11048   0.699E+00    0.672E+01
DAV:   6    -0.399953214466E+03    0.13181E+02   -0.70773E+02 10840   0.766E+01    0.645E+01
DAV:   7    -0.353682374264E+03    0.46271E+02   -0.17273E+02 10808   0.379E+01    0.608E+00
DAV:   8    -0.353934626605E+03   -0.25225E+00   -0.20104E+00 10872   0.291E+00    0.329E+00
DAV:   9    -0.353852555756E+03    0.82071E-01   -0.35283E-01 11184   0.106E+00    0.852E-01
DAV:  10    -0.353858672554E+03   -0.61168E-02   -0.16463E-02 11784   0.242E-01    0.336E-01
DAV:  11    -0.353861397718E+03   -0.27252E-02   -0.70352E-03 10976   0.199E-01    0.126E-01
DAV:  12    -0.353861612669E+03   -0.21495E-03   -0.71963E-04 11944   0.529E-02    0.291E-02
DAV:  13    -0.353861605834E+03    0.68348E-05   -0.80045E-05 11528   0.219E-02    0.178E-02
DAV:  14    -0.353861592927E+03    0.12907E-04   -0.50467E-06  7960   0.496E-03    0.114E-02
DAV:  15    -0.353861584076E+03    0.88501E-05   -0.44025E-06  8320   0.572E-03    0.813E-04
DAV:  16    -0.353861584160E+03   -0.83295E-07   -0.12540E-07  5448   0.852E-04
   1 F= -.35386158E+03 E0= -.35381319E+03  d E =-.145189E+00  mag=    46.2331
 Found     1 degrees of freedom:
       N       E                     dE             d eps       ncg     rms          rms(c)
DAV:   1    -0.353764036129E+03    0.97548E-01   -0.23130E+00 20632   0.149E+01    0.575E-01
DAV:   2    -0.353861574323E+03   -0.97538E-01   -0.95575E-01 15944   0.147E+00    0.130E+00
DAV:   3    -0.353865335678E+03   -0.37614E-02   -0.44145E-02 20232   0.870E-01    0.146E+00
DAV:   4    -0.353863737412E+03    0.15983E-02   -0.60160E-03 18272   0.616E-01    0.109E+00
DAV:   5    -0.353861408502E+03    0.23289E-02   -0.15668E-03 16976   0.390E-01    0.209E-01
DAV:   6    -0.353861399625E+03    0.88765E-05   -0.35913E-04 20688   0.917E-02    0.178E-01
DAV:   7    -0.353861348293E+03    0.51332E-04   -0.75015E-05 17480   0.618E-02    0.155E-01
DAV:   8    -0.353861323147E+03    0.25146E-04   -0.52045E-05 17312   0.607E-02    0.145E-01
DAV:   9    -0.353861348786E+03   -0.25639E-04   -0.11589E-04 17272   0.102E-01    0.233E-01
DAV:  10    -0.353861203958E+03    0.14483E-03   -0.12751E-04 21088   0.101E-01    0.565E-02
DAV:  11    -0.353861208403E+03   -0.44443E-05   -0.41974E-05 22744   0.383E-02    0.673E-02
DAV:  12    -0.353861200016E+03    0.83864E-05   -0.16246E-05 17880   0.330E-02    0.369E-02
DAV:  13    -0.353861198373E+03    0.16430E-05   -0.59142E-06 16512   0.155E-02    0.155E-02
DAV:  14    -0.353861199045E+03   -0.67163E-06   -0.15446E-06  8904   0.101E-02
   2 F= -.35386120E+03 E0= -.35381281E+03  d E =-.145179E+00  mag=    46.2332
       N       E                     dE             d eps       ncg     rms          rms(c)
DAV:   1    -0.353508373993E+03    0.35282E+00   -0.81878E+00 20648   0.276E+01    0.112E+00
DAV:   2    -0.353885483296E+03   -0.37711E+00   -0.34716E+00 16152   0.282E+00    0.400E+00
DAV:   3    -0.353866744919E+03    0.18738E-01   -0.18444E-01 19552   0.166E+00    0.170E+00
DAV:   4    -0.353878937567E+03   -0.12193E-01   -0.25648E-02 19520   0.134E+00    0.291E+00
DAV:   5    -0.353862224749E+03    0.16713E-01   -0.10763E-02 16904   0.990E-01    0.584E-01
DAV:   6    -0.353861846541E+03    0.37821E-03   -0.18354E-03 20336   0.244E-01    0.321E-01
DAV:   7    -0.353861776808E+03    0.69733E-04   -0.46339E-04 17928   0.142E-01    0.333E-01
DAV:   8    -0.353861575410E+03    0.20140E-03   -0.24901E-04 17216   0.131E-01    0.259E-01
DAV:   9    -0.353861664908E+03   -0.89497E-04   -0.31081E-04 17344   0.159E-01    0.378E-01
DAV:  10    -0.353861304234E+03    0.36067E-03   -0.42311E-04 18920   0.188E-01    0.242E-01
DAV:  11    -0.353861212728E+03    0.91506E-04   -0.20767E-04 21696   0.936E-02    0.897E-02
DAV:  12    -0.353861236258E+03   -0.23530E-04   -0.73357E-05 21648   0.687E-02    0.134E-01
DAV:  13    -0.353861198616E+03    0.37642E-04   -0.51194E-05 18136   0.615E-02    0.354E-02
DAV:  14    -0.353861210319E+03   -0.11703E-04   -0.19010E-05 20320   0.337E-02    0.795E-02
DAV:  15    -0.353861198771E+03    0.11549E-04   -0.11725E-05 17016   0.311E-02    0.184E-02
DAV:  16    -0.353861198701E+03    0.70286E-07   -0.22520E-06  9432   0.112E-02
   3 F= -.35386120E+03 E0= -.35381281E+03  d E =-.145176E+00  mag=    46.2332
