 vasp.5.4.1 05Feb16 (build Oct 12 2016 17:31:35) complex                        
  
 executed on           IFC91_ompi date 2020.09.07  23:29:12
 running on    4 total cores
 distrk:  each k-point on    4 cores,    1 groups
 distr:  one band on NCORES_PER_BAND=   1 cores,    4 groups


--------------------------------------------------------------------------------------------------------


 INCAR:
 POTCAR:   PAW_PBE Ni_pv 06Sep2000                
 POTCAR:   PAW_PBE Ni_pv 06Sep2000                
  local pseudopotential read in
  partial core-charges read in
  atomic valenz-charges read in
  non local Contribution for L=           1  read in
    real space projection operators read in
  non local Contribution for L=           1  read in
    real space projection operators read in
  non local Contribution for L=           2  read in
    real space projection operators read in
  non local Contribution for L=           2  read in
    real space projection operators read in
  non local Contribution for L=           0  read in
    real space projection operators read in
  non local Contribution for L=           0  read in
    real space projection operators read in
    PAW grid and wavefunctions read in
 
   number of l-projection  operators is LMAX  =           6
   number of lm-projection operators is LMMAX =          18
 
 Optimization of the real space projectors (new method)

 maximal supplied QI-value         = 18.90
 optimisation between [QCUT,QGAM] = [ 10.96, 27.40] = [ 33.64,210.25] Ry 
 Optimized for a Real-space Cutoff    1.19 Angstroem

   l    n(q)    QCUT    max X(q) W(low)/X(q) W(high)/X(q)  e(spline) 
   1      9    10.960     3.231    0.64E-06    0.38E-05    0.29E-07
   1      9    10.960     4.241    0.27E-04    0.99E-05    0.15E-06
   2      9    10.960     3.566    0.37E-04    0.13E-04    0.55E-07
   2      9    10.960    20.429    0.20E-03    0.15E-04    0.28E-06
   0     10    10.960    19.799    0.13E-04    0.31E-05    0.11E-07
   0     10    10.960    52.283    0.57E-04    0.26E-04    0.65E-07
 PAW_PBE Ni_pv 06Sep2000                :
 energy of atom  1       EATOM=-3500.3496
 kinetic energy error for atom=    0.0894 (will be added to EATOM!!)
 
 
 POSCAR: Supercell by Yi Wang                    
  positions in direct lattice
  No initial velocities read in
 exchange correlation table for  LEXCH =        8
   RHO(1)=    0.500       N(1)  =     2000
   RHO(2)=  100.500       N(2)  =     4000
 


--------------------------------------------------------------------------------------------------------


 ion  position               nearest neighbor table
   1  0.000  0.000  0.000-
   2  0.000  0.000  0.250-
   3  0.000  0.000  0.500-
   4  0.000  0.000  0.750-
   5  0.000  0.250  0.000-
   6  0.000  0.250  0.250-
   7  0.000  0.250  0.500-
   8  0.000  0.250  0.750-
   9  0.000  0.500  0.000-
  10  0.000  0.500  0.250-
  11  0.000  0.500  0.500-
  12  0.000  0.500  0.750-
  13  0.000  0.750  0.000-
  14  0.000  0.750  0.250-
  15  0.000  0.750  0.500-
  16  0.000  0.750  0.750-
  17  0.250  0.000  0.000-
  18  0.250  0.000  0.250-
  19  0.250  0.000  0.500-
  20  0.250  0.000  0.750-
  21  0.250  0.250  0.000-
  22  0.250  0.250  0.250-
  23  0.250  0.250  0.500-
  24  0.250  0.250  0.750-
  25  0.250  0.500  0.000-
  26  0.250  0.500  0.250-
  27  0.250  0.500  0.500-
  28  0.250  0.500  0.750-
  29  0.250  0.750  0.000-
  30  0.250  0.750  0.250-
  31  0.250  0.750  0.500-
  32  0.250  0.750  0.750-
  33  0.500  0.000  0.000-
  34  0.500  0.000  0.250-
  35  0.500  0.000  0.500-
  36  0.500  0.000  0.750-
  37  0.500  0.250  0.000-
  38  0.500  0.250  0.250-
  39  0.500  0.250  0.500-
  40  0.500  0.250  0.750-
  41  0.500  0.500  0.000-
  42  0.500  0.500  0.250-
  43  0.500  0.500  0.500-
  44  0.500  0.500  0.750-
  45  0.500  0.750  0.000-
  46  0.500  0.750  0.250-
  47  0.500  0.750  0.500-
  48  0.500  0.750  0.750-
  49  0.750  0.000  0.000-
  50  0.750  0.000  0.250-
  51  0.750  0.000  0.500-
  52  0.750  0.000  0.750-
  53  0.750  0.250  0.000-
  54  0.750  0.250  0.250-
  55  0.750  0.250  0.500-
  56  0.750  0.250  0.750-
  57  0.750  0.500  0.000-
  58  0.750  0.500  0.250-
  59  0.750  0.500  0.500-
  60  0.750  0.500  0.750-
  61  0.750  0.750  0.000-
  62  0.750  0.750  0.250-
  63  0.750  0.750  0.500-
  64  0.750  0.750  0.750-
 
  LATTYP: Found a face centered cubic cell.
 ALAT       =    15.1575000000
  
  Lattice vectors:
  
 A1 = (   0.0000000000,   7.5787500000,   7.5787500000)
 A2 = (   7.5787500000,   0.0000000000,   7.5787500000)
 A3 = (   7.5787500000,   7.5787500000,   0.0000000000)


Analysis of symmetry for initial positions (statically):
=====================================================================
 Subroutine PRICEL returns following result:
 
  LATTYP: Found a face centered cubic cell.
 ALAT       =     3.7893750000
  
  Lattice vectors:
  
 A1 = (   0.0000000000,   1.8946875000,   1.8946875000)
 A2 = (   1.8946875000,   0.0000000000,   1.8946875000)
 A3 = (   1.8946875000,   1.8946875000,   0.0000000000)
 
  64 primitive cells build up your supercell.
 

 Routine SETGRP: Setting up the symmetry group for a 
 face centered cubic supercell.


 Subroutine GETGRP returns: Found 48 space group operations
 (whereof 48 operations were pure point group operations)
 out of a pool of 48 trial point group operations.


The static configuration has the point symmetry O_h .


Analysis of symmetry for dynamics (positions and initial velocities):
=====================================================================
 Subroutine PRICEL returns following result:
 
  LATTYP: Found a face centered cubic cell.
 ALAT       =     3.7893750000
  
  Lattice vectors:
  
 A1 = (   0.0000000000,   1.8946875000,   1.8946875000)
 A2 = (   1.8946875000,   0.0000000000,   1.8946875000)
 A3 = (   1.8946875000,   1.8946875000,   0.0000000000)
 
  64 primitive cells build up your supercell.
 

 Routine SETGRP: Setting up the symmetry group for a 
 face centered cubic supercell.


 Subroutine GETGRP returns: Found 48 space group operations
 (whereof 48 operations were pure point group operations)
 out of a pool of 48 trial point group operations.


The dynamic configuration has the point symmetry O_h .


Analysis of structural, dynamic, and magnetic symmetry:
=====================================================================
 Subroutine PRICEL returns following result:
 
  LATTYP: Found a face centered cubic cell.
 ALAT       =     3.7893750000
  
  Lattice vectors:
  
 A1 = (   0.0000000000,   1.8946875000,   1.8946875000)
 A2 = (   1.8946875000,   0.0000000000,   1.8946875000)
 A3 = (   1.8946875000,   1.8946875000,   0.0000000000)
 
  64 primitive cells build up your supercell.
 

 Routine SETGRP: Setting up the symmetry group for a 
 face centered cubic supercell.


 Subroutine GETGRP returns: Found 48 space group operations
 (whereof 48 operations were pure point group operations)
 out of a pool of 48 trial point group operations.


The magnetic configuration has the point symmetry O_h .


 Subroutine INISYM returns: Found 48 space group operations
 (whereof 48 operations are pure point group operations),
 and found    64 'primitive' translations

 
 
 KPOINTS: Zr 15x15x15                             

Automatic generation of k-mesh.
Space group operators:
 irot       det(A)        alpha          n_x          n_y          n_z        tau_x        tau_y        tau_z
    1     1.000000     0.000001     1.000000     0.000000     0.000000     0.000000     0.000000     0.000000
    2    -1.000000     0.000001     1.000000     0.000000     0.000000     0.000000     0.000000     0.000000
    3     1.000000   120.000000    -0.577350    -0.577350    -0.577350     0.000000     0.000000     0.000000
    4    -1.000000   120.000000    -0.577350    -0.577350    -0.577350     0.000000     0.000000     0.000000
    5     1.000000   120.000000     0.577350     0.577350     0.577350     0.000000     0.000000     0.000000
    6    -1.000000   120.000000     0.577350     0.577350     0.577350     0.000000     0.000000     0.000000
    7     1.000000    90.000000     0.000000     0.000000    -1.000000     0.000000     0.000000     0.000000
    8    -1.000000    90.000000     0.000000     0.000000    -1.000000     0.000000     0.000000     0.000000
    9     1.000000   180.000000     0.000000     0.707107     0.707107     0.000000     0.000000     0.000000
   10    -1.000000   180.000000     0.000000     0.707107     0.707107     0.000000     0.000000     0.000000
   11     1.000000    90.000000     0.000000     1.000000     0.000000     0.000000     0.000000     0.000000
   12    -1.000000    90.000000     0.000000     1.000000     0.000000     0.000000     0.000000     0.000000
   13     1.000000   180.000000     0.000000     0.000000     1.000000     0.000000     0.000000     0.000000
   14    -1.000000   180.000000     0.000000     0.000000     1.000000     0.000000     0.000000     0.000000
   15     1.000000   120.000000    -0.577350     0.577350     0.577350     0.000000     0.000000     0.000000
   16    -1.000000   120.000000    -0.577350     0.577350     0.577350     0.000000     0.000000     0.000000
   17     1.000000   120.000000    -0.577350     0.577350    -0.577350     0.000000     0.000000     0.000000
   18    -1.000000   120.000000    -0.577350     0.577350    -0.577350     0.000000     0.000000     0.000000
   19     1.000000    90.000000     0.000000     0.000000     1.000000     0.000000     0.000000     0.000000
   20    -1.000000    90.000000     0.000000     0.000000     1.000000     0.000000     0.000000     0.000000
   21     1.000000    90.000000    -1.000000     0.000000     0.000000     0.000000     0.000000     0.000000
   22    -1.000000    90.000000    -1.000000     0.000000     0.000000     0.000000     0.000000     0.000000
   23     1.000000   180.000000     0.707107     0.000000     0.707107     0.000000     0.000000     0.000000
   24    -1.000000   180.000000     0.707107     0.000000     0.707107     0.000000     0.000000     0.000000
   25     1.000000   120.000000     0.577350    -0.577350     0.577350     0.000000     0.000000     0.000000
   26    -1.000000   120.000000     0.577350    -0.577350     0.577350     0.000000     0.000000     0.000000
   27     1.000000   120.000000    -0.577350    -0.577350     0.577350     0.000000     0.000000     0.000000
   28    -1.000000   120.000000    -0.577350    -0.577350     0.577350     0.000000     0.000000     0.000000
   29     1.000000   180.000000     1.000000     0.000000     0.000000     0.000000     0.000000     0.000000
   30    -1.000000   180.000000     1.000000     0.000000     0.000000     0.000000     0.000000     0.000000
   31     1.000000    90.000000     0.000000    -1.000000     0.000000     0.000000     0.000000     0.000000
   32    -1.000000    90.000000     0.000000    -1.000000     0.000000     0.000000     0.000000     0.000000
   33     1.000000   180.000000     0.707107     0.707107     0.000000     0.000000     0.000000     0.000000
   34    -1.000000   180.000000     0.707107     0.707107     0.000000     0.000000     0.000000     0.000000
   35     1.000000    90.000000     1.000000     0.000000     0.000000     0.000000     0.000000     0.000000
   36    -1.000000    90.000000     1.000000     0.000000     0.000000     0.000000     0.000000     0.000000
   37     1.000000   120.000000     0.577350    -0.577350    -0.577350     0.000000     0.000000     0.000000
   38    -1.000000   120.000000     0.577350    -0.577350    -0.577350     0.000000     0.000000     0.000000
   39     1.000000   180.000000     0.000000     1.000000     0.000000     0.000000     0.000000     0.000000
   40    -1.000000   180.000000     0.000000     1.000000     0.000000     0.000000     0.000000     0.000000
   41     1.000000   120.000000     0.577350     0.577350    -0.577350     0.000000     0.000000     0.000000
   42    -1.000000   120.000000     0.577350     0.577350    -0.577350     0.000000     0.000000     0.000000
   43     1.000000   180.000000     0.000000    -0.707107     0.707107     0.000000     0.000000     0.000000
   44    -1.000000   180.000000     0.000000    -0.707107     0.707107     0.000000     0.000000     0.000000
   45     1.000000   180.000000     0.707107    -0.707107     0.000000     0.000000     0.000000     0.000000
   46    -1.000000   180.000000     0.707107    -0.707107     0.000000     0.000000     0.000000     0.000000
   47     1.000000   180.000000     0.707107     0.000000    -0.707107     0.000000     0.000000     0.000000
   48    -1.000000   180.000000     0.707107     0.000000    -0.707107     0.000000     0.000000     0.000000
 
 Subroutine IBZKPT returns following result:
 ===========================================
 
 Found      4 irreducible k-points:
 
 Following reciprocal coordinates:
            Coordinates               Weight
  0.000000  0.000000  0.000000      1.000000
  0.333333  0.000000  0.000000      8.000000
  0.333333  0.333333  0.000000      6.000000
 -0.333333  0.333333  0.000000     12.000000
 
 Following cartesian coordinates:
            Coordinates               Weight
  0.000000  0.000000  0.000000      1.000000
 -0.021991  0.021991  0.021991      8.000000
  0.000000  0.000000  0.043983      6.000000
  0.043983 -0.043983  0.000000     12.000000
 
 
 Subroutine IBZKPT_HF returns following result:
 ==============================================
 
 Found     27 k-points in 1st BZ
 the following     27 k-points will be used (e.g. in the exchange kernel)
 Following reciprocal coordinates:   # in IRBZ
  0.000000  0.000000  0.000000    0.03703704   1 t-inv F
  0.333333  0.000000  0.000000    0.03703704   2 t-inv F
  0.333333  0.333333  0.000000    0.03703704   3 t-inv F
 -0.333333  0.333333  0.000000    0.03703704   4 t-inv F
 -0.333333  0.000000  0.000000    0.03703704   2 t-inv F
  0.000000  0.333333  0.000000    0.03703704   2 t-inv F
  0.000000 -0.333333  0.000000    0.03703704   2 t-inv F
  0.000000  0.000000  0.333333    0.03703704   2 t-inv F
  0.000000  0.000000 -0.333333    0.03703704   2 t-inv F
  0.333333  0.333333  0.333333    0.03703704   2 t-inv F
 -0.333333 -0.333333 -0.333333    0.03703704   2 t-inv F
 -0.333333 -0.333333  0.000000    0.03703704   3 t-inv F
  0.000000  0.333333  0.333333    0.03703704   3 t-inv F
  0.000000 -0.333333 -0.333333    0.03703704   3 t-inv F
  0.333333  0.000000  0.333333    0.03703704   3 t-inv F
 -0.333333  0.000000 -0.333333    0.03703704   3 t-inv F
  0.333333 -0.333333  0.000000    0.03703704   4 t-inv F
  0.000000 -0.333333  0.333333    0.03703704   4 t-inv F
  0.000000  0.333333 -0.333333    0.03703704   4 t-inv F
  0.333333  0.000000 -0.333333    0.03703704   4 t-inv F
 -0.333333  0.000000  0.333333    0.03703704   4 t-inv F
  0.333333  0.333333  0.666667    0.03703704   4 t-inv F
 -0.333333 -0.333333 -0.666667    0.03703704   4 t-inv F
 -0.333333 -0.666667 -0.333333    0.03703704   4 t-inv F
  0.333333  0.666667  0.333333    0.03703704   4 t-inv F
 -0.666667 -0.333333 -0.333333    0.03703704   4 t-inv F
  0.666667  0.333333  0.333333    0.03703704   4 t-inv F


--------------------------------------------------------------------------------------------------------




 Dimension of arrays:
   k-points           NKPTS =      4   k-points in BZ     NKDIM =      4   number of bands    NBANDS=    648
   number of dos      NEDOS =    301   number of ions     NIONS =     64
   non local maximal  LDIM  =      6   non local SUM 2l+1 LMDIM =     18
   total plane-waves  NPLWV = 512000
   max r-space proj   IRMAX =   4243   max aug-charges    IRDMAX=   6540
   dimension x,y,z NGX =    80 NGY =   80 NGZ =   80
   dimension x,y,z NGXF=   126 NGYF=  126 NGZF=  126
   support grid    NGXF=   126 NGYF=  126 NGZF=  126
   ions per type =              64
 NGX,Y,Z   is equivalent  to a cutoff of  12.41, 12.41, 12.41 a.u.
 NGXF,Y,Z  is equivalent  to a cutoff of  19.54, 19.54, 19.54 a.u.


 I would recommend the setting:
   dimension x,y,z NGX =    75 NGY =   75 NGZ =   75
 SYSTEM =  phonon of Zr bcc - omiga                
 POSCAR =  Supercell by Yi Wang                    

 Startparameter for this run:
   NWRITE =      0    write-flag & timer
   PREC   = h         normal or accurate (medium, high low for compatibility)
   ISTART =      0    job   : 0-new  1-cont  2-samecut
   ICHARG =      2    charge: 1-file 2-atom 10-const
   ISPIN  =      2    spin polarized calculation?
   LNONCOLLINEAR =      F non collinear calculations
   LSORBIT =      F    spin-orbit coupling
   INIWAV =      1    electr: 0-lowe 1-rand  2-diag
   LASPH  =      F    aspherical Exc in radial PAW
   METAGGA=      F    non-selfconsistent MetaGGA calc.

 Electronic Relaxation 1
   ENCUT  =  459.9 eV  33.80 Ry    5.81 a.u.  18.74 18.74 18.74*2*pi/ulx,y,z
   ENINI  =  459.9     initial cutoff
   ENAUG  =  703.4 eV  augmentation charge cutoff
   NELM   =     60;   NELMIN=  2; NELMDL=  0     # of ELM steps 
   EDIFF  = 0.1E-05   stopping-criterion for ELM
   LREAL  =      T    real-space projection
   NLSPLINE    = F    spline interpolate recip. space projectors
   LCOMPAT=      F    compatible to vasp.4.4
   GGA_COMPAT  = T    GGA compatible to vasp.4.4-vasp.4.6
   LMAXPAW     = -100 max onsite density
   LMAXMIX     =    2 max onsite mixed and CHGCAR
   VOSKOWN=      0    Vosko Wilk Nusair interpolation
   ROPT   =   -0.00040
 Ionic relaxation
   EDIFFG = 0.1E-04   stopping-criterion for IOM
   NSW    =    805    number of steps for IOM
   NBLOCK =      1;   KBLOCK =      1    inner block; outer block 
   IBRION =      6    ionic relax: 0-MD 1-quasi-New 2-CG
   NFREE  =      2    steps in history (QN), initial steepest desc. (CG)
   ISIF   =      2    stress and relaxation
   IWAVPR =     11    prediction:  0-non 1-charg 2-wave 3-comb
   ISYM   =      2    0-nonsym 1-usesym 2-fastsym
   LCORR  =      T    Harris-Foulkes like correction to forces

   POTIM  = 0.5000    time-step for ionic-motion
   TEIN   =    0.0    initial temperature
   TEBEG  =    0.0;   TEEND  =   0.0 temperature during run
   SMASS  =  -3.00    Nose mass-parameter (am)
   estimated Nose-frequenzy (Omega)   =  0.10E-29 period in steps =****** mass=  -0.263E-26a.u.
   SCALEE = 1.0000    scale energy and forces
   NPACO  =    256;   APACO  = 16.0  distance and # of slots for P.C.
   PSTRESS=    0.0 pullay stress

  Mass of Ions in am
   POMASS =  58.69
  Ionic Valenz
   ZVAL   =  16.00
  Atomic Wigner-Seitz radii
   RWIGS  =  -1.00
  virtual crystal weights 
   VCA    =   1.00
   NELECT =    1024.0000    total number of electrons
   NUPDOWN=      -1.0000    fix difference up-down

 DOS related values:
   EMIN   =  10.00;   EMAX   =-10.00  energy-range for DOS
   EFERMI =   0.00
   ISMEAR =     1;   SIGMA  =   0.20  broadening in eV -4-tet -1-fermi 0-gaus

 Electronic relaxation 2 (details)
   IALGO  =     38    algorithm
   LDIAG  =      T    sub-space diagonalisation (order eigenvalues)
   LSUBROT=      F    optimize rotation matrix (better conditioning)
   TURBO    =      0    0=normal 1=particle mesh
   IRESTART =      0    0=no restart 2=restart with 2 vectors
   NREBOOT  =      0    no. of reboots
   NMIN     =      0    reboot dimension
   EREF     =   0.00    reference energy to select bands
   IMIX   =      4    mixing-type and parameters
     AMIX     =   0.40;   BMIX     =  1.00
     AMIX_MAG =   1.60;   BMIX_MAG =  1.00
     AMIN     =   0.10
     WC   =   100.;   INIMIX=   1;  MIXPRE=   1;  MAXMIX= -45

 Intra band minimization:
   WEIMIN = 0.0010     energy-eigenvalue tresh-hold
   EBREAK =  0.39E-09  absolut break condition
   DEPER  =   0.30     relativ break condition  

   TIME   =   0.40     timestep for ELM

  volume/ion in A,a.u.               =      13.60        91.80
  Fermi-wavevector in a.u.,A,eV,Ry     =   1.728094  3.265623 40.631175  2.986307
  Thomas-Fermi vector in A             =   2.803093
 
 Write flags
   LWAVE  =      T    write WAVECAR
   LCHARG =      T    write CHGCAR
   LVTOT  =      F    write LOCPOT, total local potential
   LVHAR  =      F    write LOCPOT, Hartree potential only
   LELF   =      F    write electronic localiz. function (ELF)
   LORBIT =      0    0 simple, 1 ext, 2 COOP (PROOUT)


 Dipole corrections
   LMONO  =      F    monopole corrections only (constant potential shift)
   LDIPOL =      F    correct potential (dipole corrections)
   IDIPOL =      0    1-x, 2-y, 3-z, 4-all directions 
   EPSILON=  1.0000000 bulk dielectric constant

 Exchange correlation treatment:
   GGA     =    --    GGA type
   LEXCH   =     8    internal setting for exchange type
   VOSKOWN=      0    Vosko Wilk Nusair interpolation
   LHFCALC =     F    Hartree Fock is set to
   LHFONE  =     F    Hartree Fock one center treatment
   AEXX    =    0.0000 exact exchange contribution

 Linear response parameters
   LEPSILON=     F    determine dielectric tensor
   LRPA    =     F    only Hartree local field effects (RPA)
   LNABLA  =     F    use nabla operator in PAW spheres
   LVEL    =     F    velocity operator in full k-point grid
   LINTERFAST=   F  fast interpolation
   KINTER  =     0    interpolate to denser k-point grid
   CSHIFT  =0.1000    complex shift for real part using Kramers Kronig
   OMEGAMAX=  -1.0    maximum frequency
   DEG_THRESHOLD= 0.2000000E-02 threshold for treating states as degnerate
   RTIME   =    0.100 relaxation time in fs

 Orbital magnetization related:
   ORBITALMAG=     F  switch on orbital magnetization
   LCHIMAG   =     F  perturbation theory with respect to B field
   DQ        =  0.001000  dq finite difference perturbation B field



--------------------------------------------------------------------------------------------------------


 finite differences with symmetry
 charge density and potential will be updated during run
 spin polarized calculation
 Variant of blocked Davidson
 Davidson routine will perform the subspace rotation
 perform sub-space diagonalisation
    after iterative eigenvector-optimisation
 modified Broyden-mixing scheme, WC =      100.0
 initial mixing is a Kerker type mixing with AMIX =  0.4000 and BMIX =      1.0000
 Hartree-type preconditioning will be used
 using additional bands          136
 real space projection scheme for non local part
 use partial core corrections
 calculate Harris-corrections to forces 
   (improved forces if not selfconsistent)
 use gradient corrections 
 use of overlap-Matrix (Vanderbilt PP)
 Methfessel and Paxton  Order N= 1 SIGMA  =   0.20


--------------------------------------------------------------------------------------------------------


  energy-cutoff  :      459.93
  volume of cell :      870.61
      direct lattice vectors                 reciprocal lattice vectors
     0.000000000  7.578750000  7.578750000    -0.065973940  0.065973940  0.065973940
     7.578750000  0.000000000  7.578750000     0.065973940 -0.065973940  0.065973940
     7.578750000  7.578750000  0.000000000     0.065973940  0.065973940 -0.065973940

  length of vectors
    10.717971036 10.717971036 10.717971036     0.114270217  0.114270217  0.114270217


 
 k-points in units of 2pi/SCALE and weight: Zr 15x15x15                             
   0.00000000  0.00000000  0.00000000       0.037
  -0.02199131  0.02199131  0.02199131       0.296
   0.00000000  0.00000000  0.04398263       0.222
   0.04398263 -0.04398263  0.00000000       0.444
 
 k-points in reciprocal lattice and weights: Zr 15x15x15                             
   0.00000000  0.00000000  0.00000000       0.037
   0.33333333  0.00000000  0.00000000       0.296
   0.33333333  0.33333333  0.00000000       0.222
  -0.33333333  0.33333333  0.00000000       0.444
 
 position of ions in fractional coordinates (direct lattice) 
   0.00000000  0.00000000  0.00000000
   0.00000000  0.00000000  0.25000000
   0.00000000  0.00000000  0.50000000
   0.00000000  0.00000000  0.75000000
   0.00000000  0.25000000  0.00000000
   0.00000000  0.25000000  0.25000000
   0.00000000  0.25000000  0.50000000
   0.00000000  0.25000000  0.75000000
   0.00000000  0.50000000  0.00000000
   0.00000000  0.50000000  0.25000000
   0.00000000  0.50000000  0.50000000
   0.00000000  0.50000000  0.75000000
   0.00000000  0.75000000  0.00000000
   0.00000000  0.75000000  0.25000000
   0.00000000  0.75000000  0.50000000
   0.00000000  0.75000000  0.75000000
   0.25000000  0.00000000  0.00000000
   0.25000000  0.00000000  0.25000000
   0.25000000  0.00000000  0.50000000
   0.25000000  0.00000000  0.75000000
   0.25000000  0.25000000  0.00000000
   0.25000000  0.25000000  0.25000000
   0.25000000  0.25000000  0.50000000
   0.25000000  0.25000000  0.75000000
   0.25000000  0.50000000  0.00000000
   0.25000000  0.50000000  0.25000000
   0.25000000  0.50000000  0.50000000
   0.25000000  0.50000000  0.75000000
   0.25000000  0.75000000  0.00000000
   0.25000000  0.75000000  0.25000000
   0.25000000  0.75000000  0.50000000
   0.25000000  0.75000000  0.75000000
   0.50000000  0.00000000  0.00000000
   0.50000000  0.00000000  0.25000000
   0.50000000  0.00000000  0.50000000
   0.50000000  0.00000000  0.75000000
   0.50000000  0.25000000  0.00000000
   0.50000000  0.25000000  0.25000000
   0.50000000  0.25000000  0.50000000
   0.50000000  0.25000000  0.75000000
   0.50000000  0.50000000  0.00000000
   0.50000000  0.50000000  0.25000000
   0.50000000  0.50000000  0.50000000
   0.50000000  0.50000000  0.75000000
   0.50000000  0.75000000  0.00000000
   0.50000000  0.75000000  0.25000000
   0.50000000  0.75000000  0.50000000
   0.50000000  0.75000000  0.75000000
   0.75000000  0.00000000  0.00000000
   0.75000000  0.00000000  0.25000000
   0.75000000  0.00000000  0.50000000
   0.75000000  0.00000000  0.75000000
   0.75000000  0.25000000  0.00000000
   0.75000000  0.25000000  0.25000000
   0.75000000  0.25000000  0.50000000
   0.75000000  0.25000000  0.75000000
   0.75000000  0.50000000  0.00000000
   0.75000000  0.50000000  0.25000000
   0.75000000  0.50000000  0.50000000
   0.75000000  0.50000000  0.75000000
   0.75000000  0.75000000  0.00000000
   0.75000000  0.75000000  0.25000000
   0.75000000  0.75000000  0.50000000
   0.75000000  0.75000000  0.75000000
 
 position of ions in cartesian coordinates  (Angst):
   0.00000000  0.00000000  0.00000000
   1.89468750  1.89468750  0.00000000
   3.78937500  3.78937500  0.00000000
   5.68406250  5.68406250  0.00000000
   1.89468750  0.00000000  1.89468750
   3.78937500  1.89468750  1.89468750
   5.68406250  3.78937500  1.89468750
   7.57875000  5.68406250  1.89468750
   3.78937500  0.00000000  3.78937500
   5.68406250  1.89468750  3.78937500
   7.57875000  3.78937500  3.78937500
   9.47343750  5.68406250  3.78937500
   5.68406250  0.00000000  5.68406250
   7.57875000  1.89468750  5.68406250
   9.47343750  3.78937500  5.68406250
  11.36812500  5.68406250  5.68406250
   0.00000000  1.89468750  1.89468750
   1.89468750  3.78937500  1.89468750
   3.78937500  5.68406250  1.89468750
   5.68406250  7.57875000  1.89468750
   1.89468750  1.89468750  3.78937500
   3.78937500  3.78937500  3.78937500
   5.68406250  5.68406250  3.78937500
   7.57875000  7.57875000  3.78937500
   3.78937500  1.89468750  5.68406250
   5.68406250  3.78937500  5.68406250
   7.57875000  5.68406250  5.68406250
   9.47343750  7.57875000  5.68406250
   5.68406250  1.89468750  7.57875000
   7.57875000  3.78937500  7.57875000
   9.47343750  5.68406250  7.57875000
  11.36812500  7.57875000  7.57875000
   0.00000000  3.78937500  3.78937500
   1.89468750  5.68406250  3.78937500
   3.78937500  7.57875000  3.78937500
   5.68406250  9.47343750  3.78937500
   1.89468750  3.78937500  5.68406250
   3.78937500  5.68406250  5.68406250
   5.68406250  7.57875000  5.68406250
   7.57875000  9.47343750  5.68406250
   3.78937500  3.78937500  7.57875000
   5.68406250  5.68406250  7.57875000
   7.57875000  7.57875000  7.57875000
   9.47343750  9.47343750  7.57875000
   5.68406250  3.78937500  9.47343750
   7.57875000  5.68406250  9.47343750
   9.47343750  7.57875000  9.47343750
  11.36812500  9.47343750  9.47343750
   0.00000000  5.68406250  5.68406250
   1.89468750  7.57875000  5.68406250
   3.78937500  9.47343750  5.68406250
   5.68406250 11.36812500  5.68406250
   1.89468750  5.68406250  7.57875000
   3.78937500  7.57875000  7.57875000
   5.68406250  9.47343750  7.57875000
   7.57875000 11.36812500  7.57875000
   3.78937500  5.68406250  9.47343750
   5.68406250  7.57875000  9.47343750
   7.57875000  9.47343750  9.47343750
   9.47343750 11.36812500  9.47343750
   5.68406250  5.68406250 11.36812500
   7.57875000  7.57875000 11.36812500
   9.47343750  9.47343750 11.36812500
  11.36812500 11.36812500 11.36812500
 


--------------------------------------------------------------------------------------------------------


 k-point  1 :   0.0000 0.0000 0.0000  plane waves:   19579
 k-point  2 :   0.3333 0.0000 0.0000  plane waves:   19497
 k-point  3 :   0.3333 0.3333 0.0000  plane waves:   19454
 k-point  4 :  -0.3333 0.3333 0.0000  plane waves:   19495

 maximum and minimum number of plane-waves per node :     19579    19454

 maximum number of plane-waves:     19579
 maximum index in each direction: 
   IXMAX=   19   IYMAX=   18   IZMAX=   18
   IXMIN=  -19   IYMIN=  -19   IZMIN=  -18

 NGX is ok and might be reduce to  78
 NGY is ok and might be reduce to  76
 NGZ is ok and might be reduce to  74

 serial   3D FFT for wavefunctions
 parallel 3D FFT for charge:
    minimum data exchange during FFTs selected (reduces bandwidth)


 total amount of memory used by VASP on root node   606305. kBytes
========================================================================

   base      :      30000. kBytes
   nonlr-proj:      46103. kBytes
   fftplans  :      20120. kBytes
   grid      :      78194. kBytes
   one-center:       1990. kBytes
   wavefun   :     429898. kBytes
 
     INWAV:  cpu time    0.0000: real time    0.0000
 Broyden mixing: mesh for mixing (old mesh)
   NGX = 37   NGY = 37   NGZ = 37
  (NGX  =126   NGY  =126   NGZ  =126)
  gives a total of  50653 points

 initial charge density was supplied:
 charge density of overlapping atoms calculated
 number of electron    1024.0000000 magnetization      64.0000000
 keeping initial charge density in first step


--------------------------------------------------------------------------------------------------------


 Maximum index for non-local projection operator         4093
 Maximum index for augmentation-charges         1732 (set IRDMAX)


--------------------------------------------------------------------------------------------------------


 First call to EWALD:  gamma=   0.186
 Maximum number of real-space cells 3x 3x 3
 Maximum number of reciprocal cells 3x 3x 3

 FEWALD executed in parallel
    FEWALD:  cpu time    0.0070: real time    0.0069


----------------------------------------- Iteration    1(   1)  ---------------------------------------


    POTLOK:  cpu time    0.7129: real time    0.7118
    SETDIJ:  cpu time    0.0950: real time    0.0946
     EDDAV:  cpu time  226.8425: real time  226.6555
       DOS:  cpu time    0.0030: real time    0.0037
    --------------------------------------------
      LOOP:  cpu time  227.6534: real time  227.4685

 eigenvalue-minimisations  : 11728
 total energy-change (2. order) : 0.1507505E+05  (-0.6205610E+05)
 number of electron    1024.0000000 magnetization      64.0000000
 augmentation part     1024.0000000 magnetization      64.0000000

 Free energy of the ion-electron system (eV)
  ---------------------------------------------------
  alpha Z        PSCENC =      7925.72117195
  Ewald energy   TEWEN  =   -142726.55438451
  -Hartree energ DENC   =    -68446.41764855
  -exchange      EXHF   =         0.00000000
  -V(xc)+E(xc)   XCENC  =      5673.78292776
  PAW double counting   =    172361.15642774  -181272.45834873
  entropy T*S    EENTRO =         0.01075230
  eigenvalues    EBANDS =     -2456.84400064
  atomic energy  EATOM  =    224016.65216645
  Solvation  Ediel_sol  =         0.00000000
  ---------------------------------------------------
  free energy    TOTEN  =     15075.04906377 eV

  energy without entropy =    15075.03831147  energy(sigma->0) =    15075.04547967


--------------------------------------------------------------------------------------------------------




----------------------------------------- Iteration    1(   2)  ---------------------------------------


     EDDAV:  cpu time  208.7633: real time  208.5920
       DOS:  cpu time    0.0040: real time    0.0040
    --------------------------------------------
      LOOP:  cpu time  208.7683: real time  208.5966

 eigenvalue-minimisations  : 10368
 total energy-change (2. order) :-0.1415441E+05  (-0.1378395E+05)
 number of electron    1024.0000000 magnetization      64.0000000
 augmentation part     1024.0000000 magnetization      64.0000000

 Free energy of the ion-electron system (eV)
  ---------------------------------------------------
  alpha Z        PSCENC =      7925.72117195
  Ewald energy   TEWEN  =   -142726.55438451
  -Hartree energ DENC   =    -68446.41764855
  -exchange      EXHF   =         0.00000000
  -V(xc)+E(xc)   XCENC  =      5673.78292776
  PAW double counting   =    172361.15642774  -181272.45834873
  entropy T*S    EENTRO =        -0.02620143
  eigenvalues    EBANDS =    -16611.21710351
  atomic energy  EATOM  =    224016.65216645
  Solvation  Ediel_sol  =         0.00000000
  ---------------------------------------------------
  free energy    TOTEN  =       920.63900717 eV

  energy without entropy =      920.66520860  energy(sigma->0) =      920.64774098


--------------------------------------------------------------------------------------------------------




----------------------------------------- Iteration    1(   3)  ---------------------------------------


     EDDAV:  cpu time  212.1158: real time  211.9418
       DOS:  cpu time    0.0040: real time    0.0043
    --------------------------------------------
      LOOP:  cpu time  212.1208: real time  211.9476

 eigenvalue-minimisations  : 10584
 total energy-change (2. order) :-0.1257608E+04  (-0.1045775E+04)
 number of electron    1024.0000000 magnetization      64.0000000
 augmentation part     1024.0000000 magnetization      64.0000000

 Free energy of the ion-electron system (eV)
  ---------------------------------------------------
  alpha Z        PSCENC =      7925.72117195
  Ewald energy   TEWEN  =   -142726.55438451
  -Hartree energ DENC   =    -68446.41764855
  -exchange      EXHF   =         0.00000000
  -V(xc)+E(xc)   XCENC  =      5673.78292776
  PAW double counting   =    172361.15642774  -181272.45834873
  entropy T*S    EENTRO =         0.13000796
  eigenvalues    EBANDS =    -17868.98141085
  atomic energy  EATOM  =    224016.65216645
  Solvation  Ediel_sol  =         0.00000000
  ---------------------------------------------------
  free energy    TOTEN  =      -336.96909077 eV

  energy without entropy =     -337.09909874  energy(sigma->0) =     -337.01242676


--------------------------------------------------------------------------------------------------------




----------------------------------------- Iteration    1(   4)  ---------------------------------------


     EDDAV:  cpu time  220.2165: real time  220.0360
       DOS:  cpu time    0.0040: real time    0.0042
    --------------------------------------------
      LOOP:  cpu time  220.2215: real time  220.0408

 eigenvalue-minimisations  : 11120
 total energy-change (2. order) :-0.7482310E+02  (-0.7207999E+02)
 number of electron    1024.0000000 magnetization      64.0000000
 augmentation part     1024.0000000 magnetization      64.0000000

 Free energy of the ion-electron system (eV)
  ---------------------------------------------------
  alpha Z        PSCENC =      7925.72117195
  Ewald energy   TEWEN  =   -142726.55438451
  -Hartree energ DENC   =    -68446.41764855
  -exchange      EXHF   =         0.00000000
  -V(xc)+E(xc)   XCENC  =      5673.78292776
  PAW double counting   =    172361.15642774  -181272.45834873
  entropy T*S    EENTRO =         0.14156737
  eigenvalues    EBANDS =    -17943.81607201
  atomic energy  EATOM  =    224016.65216645
  Solvation  Ediel_sol  =         0.00000000
  ---------------------------------------------------
  free energy    TOTEN  =      -411.79219253 eV

  energy without entropy =     -411.93375990  energy(sigma->0) =     -411.83938166


--------------------------------------------------------------------------------------------------------




----------------------------------------- Iteration    1(   5)  ---------------------------------------


     EDDAV:  cpu time  219.6026: real time  219.4266
       DOS:  cpu time    0.0050: real time    0.0045
    CHARGE:  cpu time   15.2347: real time   15.2225
    MIXING:  cpu time    0.0130: real time    0.0123
    --------------------------------------------
      LOOP:  cpu time  234.8563: real time  234.6665

 eigenvalue-minimisations  : 11048
 total energy-change (2. order) :-0.1341584E+01  (-0.1339329E+01)
 number of electron    1023.9999801 magnetization      59.8353528
 augmentation part      572.9469292 magnetization      47.4303502

 Broyden mixing:
  rms(total) = 0.67233E+01    rms(broyden)= 0.67197E+01
  rms(prec ) = 0.90132E+01
  weight for this iteration     100.00

 Free energy of the ion-electron system (eV)
  ---------------------------------------------------
  alpha Z        PSCENC =      7925.72117195
  Ewald energy   TEWEN  =   -142726.55438451
  -Hartree energ DENC   =    -68446.41764855
  -exchange      EXHF   =         0.00000000
  -V(xc)+E(xc)   XCENC  =      5673.78292776
  PAW double counting   =    172361.15642774  -181272.45834873
  entropy T*S    EENTRO =         0.14225724
  eigenvalues    EBANDS =    -17945.15834631
  atomic energy  EATOM  =    224016.65216645
  Solvation  Ediel_sol  =         0.00000000
  ---------------------------------------------------
  free energy    TOTEN  =      -413.13377696 eV

  energy without entropy =     -413.27603420  energy(sigma->0) =     -413.18119604


--------------------------------------------------------------------------------------------------------




----------------------------------------- Iteration    1(   6)  ---------------------------------------


    POTLOK:  cpu time    0.7109: real time    0.7104
    SETDIJ:  cpu time    0.0950: real time    0.0942
     EDDAV:  cpu time  216.0592: real time  215.8836
       DOS:  cpu time    0.0050: real time    0.0043
    CHARGE:  cpu time   14.2158: real time   14.2045
    MIXING:  cpu time    0.0140: real time    0.0135
    --------------------------------------------
      LOOP:  cpu time  231.0999: real time  230.9112

 eigenvalue-minimisations  : 10840
 total energy-change (2. order) : 0.1318056E+02  (-0.7077274E+02)
 number of electron    1023.9999776 magnetization      53.7879044
 augmentation part      638.8337373 magnetization      48.6292656

 Broyden mixing:
  rms(total) = 0.64501E+01    rms(broyden)= 0.64494E+01
  rms(prec ) = 0.80389E+01
  weight for this iteration     100.00

 eigenvalues of (default mixing * dielectric matrix)
  average eigenvalue GAMMA=   0.4852
  0.4852

 Free energy of the ion-electron system (eV)
  ---------------------------------------------------
  alpha Z        PSCENC =      7925.72117195
  Ewald energy   TEWEN  =   -142726.55438451
  -Hartree energ DENC   =    -65019.58167206
  -exchange      EXHF   =         0.00000000
  -V(xc)+E(xc)   XCENC  =      5546.37407441
  PAW double counting   =    166635.47194928  -175213.31895243
  entropy T*S    EENTRO =        -0.55014229
  eigenvalues    EBANDS =    -21564.16742528
  atomic energy  EATOM  =    224016.65216645
  Solvation  Ediel_sol  =         0.00000000
  ---------------------------------------------------
  free energy    TOTEN  =      -399.95321447 eV

  energy without entropy =     -399.40307218  energy(sigma->0) =     -399.76983370


--------------------------------------------------------------------------------------------------------




----------------------------------------- Iteration    1(   7)  ---------------------------------------


    POTLOK:  cpu time    0.7139: real time    0.7134
    SETDIJ:  cpu time    0.0940: real time    0.0941
     EDDAV:  cpu time  215.6792: real time  215.5019
       DOS:  cpu time    0.0040: real time    0.0044
    CHARGE:  cpu time   14.5278: real time   14.5155
    MIXING:  cpu time    0.0150: real time    0.0144
    --------------------------------------------
      LOOP:  cpu time  231.0339: real time  230.8444

 eigenvalue-minimisations  : 10808
 total energy-change (2. order) : 0.4627084E+02  (-0.1727273E+02)
 number of electron    1023.9999788 magnetization      49.5075935
 augmentation part      607.7094826 magnetization      40.4392970

 Broyden mixing:
  rms(total) = 0.60799E+00    rms(broyden)= 0.60670E+00
  rms(prec ) = 0.69024E+00
  weight for this iteration     100.00

 eigenvalues of (default mixing * dielectric matrix)
  average eigenvalue GAMMA=   0.6842
  0.8337  0.5347

 Free energy of the ion-electron system (eV)
  ---------------------------------------------------
  alpha Z        PSCENC =      7925.72117195
  Ewald energy   TEWEN  =   -142726.55438451
  -Hartree energ DENC   =    -66454.13911337
  -exchange      EXHF   =         0.00000000
  -V(xc)+E(xc)   XCENC  =      5599.11176628
  PAW double counting   =    169392.13905907  -178262.60514117
  entropy T*S    EENTRO =        -0.16140717
  eigenvalues    EBANDS =    -19843.84649180
  atomic energy  EATOM  =    224016.65216645
  Solvation  Ediel_sol  =         0.00000000
  ---------------------------------------------------
  free energy    TOTEN  =      -353.68237426 eV

  energy without entropy =     -353.52096709  energy(sigma->0) =     -353.62857187


--------------------------------------------------------------------------------------------------------




----------------------------------------- Iteration    1(   8)  ---------------------------------------


    POTLOK:  cpu time    0.7089: real time    0.7080
    SETDIJ:  cpu time    0.0940: real time    0.0942
     EDDAV:  cpu time  217.7449: real time  218.2124
       DOS:  cpu time    0.0040: real time    0.0044
    CHARGE:  cpu time   14.5558: real time   14.5436
    MIXING:  cpu time    0.0160: real time    0.0159
    --------------------------------------------
      LOOP:  cpu time  233.1246: real time  233.5794

 eigenvalue-minimisations  : 10872
 total energy-change (2. order) :-0.2522523E+00  (-0.2010420E+00)
 number of electron    1023.9999788 magnetization      45.8377396
 augmentation part      606.6516776 magnetization      38.2189203

 Broyden mixing:
  rms(total) = 0.32929E+00    rms(broyden)= 0.32914E+00
  rms(prec ) = 0.42873E+00
  weight for this iteration     100.00

 eigenvalues of (default mixing * dielectric matrix)
  average eigenvalue GAMMA=   1.0898
  0.5388  0.8491  1.8816

 Free energy of the ion-electron system (eV)
  ---------------------------------------------------
  alpha Z        PSCENC =      7925.72117195
  Ewald energy   TEWEN  =   -142726.55438451
  -Hartree energ DENC   =    -66376.52028261
  -exchange      EXHF   =         0.00000000
  -V(xc)+E(xc)   XCENC  =      5597.49715355
  PAW double counting   =    169634.21764181  -178585.81479536
  entropy T*S    EENTRO =        -0.14364079
  eigenvalues    EBANDS =    -19838.98965710
  atomic energy  EATOM  =    224016.65216645
  Solvation  Ediel_sol  =         0.00000000
  ---------------------------------------------------
  free energy    TOTEN  =      -353.93462660 eV

  energy without entropy =     -353.79098581  energy(sigma->0) =     -353.88674634


--------------------------------------------------------------------------------------------------------




----------------------------------------- Iteration    1(   9)  ---------------------------------------


    POTLOK:  cpu time    0.7059: real time    0.7059
    SETDIJ:  cpu time    0.0940: real time    0.0939
     EDDAV:  cpu time  221.8343: real time  222.0762
       DOS:  cpu time    0.0040: real time    0.0043
    CHARGE:  cpu time   14.6778: real time   14.6649
    MIXING:  cpu time    0.0160: real time    0.0161
    --------------------------------------------
      LOOP:  cpu time  237.3319: real time  237.5621

 eigenvalue-minimisations  : 11184
 total energy-change (2. order) : 0.8207085E-01  (-0.3528276E-01)
 number of electron    1023.9999788 magnetization      45.8054141
 augmentation part      607.6179907 magnetization      39.4691405

 Broyden mixing:
  rms(total) = 0.85208E-01    rms(broyden)= 0.85173E-01
  rms(prec ) = 0.88269E-01
  weight for this iteration     100.00

 eigenvalues of (default mixing * dielectric matrix)
  average eigenvalue GAMMA=   1.0883
  2.2829  0.9012  0.5453  0.6237

 Free energy of the ion-electron system (eV)
  ---------------------------------------------------
  alpha Z        PSCENC =      7925.72117195
  Ewald energy   TEWEN  =   -142726.55438451
  -Hartree energ DENC   =    -66216.29945508
  -exchange      EXHF   =         0.00000000
  -V(xc)+E(xc)   XCENC  =      5592.81272210
  PAW double counting   =    169793.72355944  -178815.11126507
  entropy T*S    EENTRO =        -0.14589156
  eigenvalues    EBANDS =    -19924.65117948
  atomic energy  EATOM  =    224016.65216645
  Solvation  Ediel_sol  =         0.00000000
  ---------------------------------------------------
  free energy    TOTEN  =      -353.85255576 eV

  energy without entropy =     -353.70666420  energy(sigma->0) =     -353.80392524


--------------------------------------------------------------------------------------------------------




----------------------------------------- Iteration    1(  10)  ---------------------------------------


    POTLOK:  cpu time    0.7079: real time    0.7074
    SETDIJ:  cpu time    0.0940: real time    0.0948
     EDDAV:  cpu time  230.6599: real time  230.4746
       DOS:  cpu time    0.0040: real time    0.0044
    CHARGE:  cpu time   14.5578: real time   14.5463
    MIXING:  cpu time    0.0190: real time    0.0186
    --------------------------------------------
      LOOP:  cpu time  246.0436: real time  245.8468

 eigenvalue-minimisations  : 11784
 total energy-change (2. order) :-0.6116798E-02  (-0.1646254E-02)
 number of electron    1023.9999788 magnetization      46.1244277
 augmentation part      607.5895428 magnetization      39.7574669

 Broyden mixing:
  rms(total) = 0.33643E-01    rms(broyden)= 0.33619E-01
  rms(prec ) = 0.37336E-01
  weight for this iteration     100.00

 eigenvalues of (default mixing * dielectric matrix)
  average eigenvalue GAMMA=   1.1100
  2.3165  1.0341  1.0341  0.5410  0.6241

 Free energy of the ion-electron system (eV)
  ---------------------------------------------------
  alpha Z        PSCENC =      7925.72117195
  Ewald energy   TEWEN  =   -142726.55438451
  -Hartree energ DENC   =    -66209.70464427
  -exchange      EXHF   =         0.00000000
  -V(xc)+E(xc)   XCENC  =      5592.69271651
  PAW double counting   =    169858.64555215  -178885.66803010
  entropy T*S    EENTRO =        -0.14466932
  eigenvalues    EBANDS =    -19925.49855141
  atomic energy  EATOM  =    224016.65216645
  Solvation  Ediel_sol  =         0.00000000
  ---------------------------------------------------
  free energy    TOTEN  =      -353.85867255 eV

  energy without entropy =     -353.71400323  energy(sigma->0) =     -353.81044945


--------------------------------------------------------------------------------------------------------




----------------------------------------- Iteration    1(  11)  ---------------------------------------


    POTLOK:  cpu time    0.7079: real time    0.7067
    SETDIJ:  cpu time    0.0940: real time    0.0940
     EDDAV:  cpu time  220.3295: real time  220.1500
       DOS:  cpu time    0.0040: real time    0.0043
    CHARGE:  cpu time   14.5798: real time   14.5676
    MIXING:  cpu time    0.0180: real time    0.0180
    --------------------------------------------
      LOOP:  cpu time  235.7332: real time  235.5414

 eigenvalue-minimisations  : 10976
 total energy-change (2. order) :-0.2725165E-02  (-0.7035162E-03)
 number of electron    1023.9999788 magnetization      46.2445446
 augmentation part      607.4473611 magnetization      39.7467957

 Broyden mixing:
  rms(total) = 0.12573E-01    rms(broyden)= 0.12542E-01
  rms(prec ) = 0.15063E-01
  weight for this iteration     100.00

 eigenvalues of (default mixing * dielectric matrix)
  average eigenvalue GAMMA=   1.1914
  2.4061  1.8719  0.9537  0.5392  0.7407  0.6368

 Free energy of the ion-electron system (eV)
  ---------------------------------------------------
  alpha Z        PSCENC =      7925.72117195
  Ewald energy   TEWEN  =   -142726.55438451
  -Hartree energ DENC   =    -66216.63652360
  -exchange      EXHF   =         0.00000000
  -V(xc)+E(xc)   XCENC  =      5592.93495760
  PAW double counting   =    169940.74412061  -178968.09114318
  entropy T*S    EENTRO =        -0.14391171
  eigenvalues    EBANDS =    -19918.48785132
  atomic energy  EATOM  =    224016.65216645
  Solvation  Ediel_sol  =         0.00000000
  ---------------------------------------------------
  free energy    TOTEN  =      -353.86139772 eV

  energy without entropy =     -353.71748601  energy(sigma->0) =     -353.81342715


--------------------------------------------------------------------------------------------------------




----------------------------------------- Iteration    1(  12)  ---------------------------------------


    POTLOK:  cpu time    0.7149: real time    0.7149
    SETDIJ:  cpu time    0.0950: real time    0.0944
     EDDAV:  cpu time  235.0733: real time  234.8832
       DOS:  cpu time    0.0040: real time    0.0041
    CHARGE:  cpu time   14.5988: real time   14.5888
    MIXING:  cpu time    0.0210: real time    0.0198
    --------------------------------------------
      LOOP:  cpu time  250.5069: real time  250.3059

 eigenvalue-minimisations  : 11944
 total energy-change (2. order) :-0.2149504E-03  (-0.7196280E-04)
 number of electron    1023.9999788 magnetization      46.2428887
 augmentation part      607.4875284 magnetization      39.7021761

 Broyden mixing:
  rms(total) = 0.29081E-02    rms(broyden)= 0.29027E-02
  rms(prec ) = 0.33071E-02
  weight for this iteration     100.00

 eigenvalues of (default mixing * dielectric matrix)
  average eigenvalue GAMMA=   1.1916
  2.4713  2.0353  0.5399  0.9457  0.9457  0.6267  0.7766

 Free energy of the ion-electron system (eV)
  ---------------------------------------------------
  alpha Z        PSCENC =      7925.72117195
  Ewald energy   TEWEN  =   -142726.55438451
  -Hartree energ DENC   =    -66214.88470197
  -exchange      EXHF   =         0.00000000
  -V(xc)+E(xc)   XCENC  =      5592.86277342
  PAW double counting   =    169974.78061811  -179001.50167476
  entropy T*S    EENTRO =        -0.14510756
  eigenvalues    EBANDS =    -19920.79247380
  atomic energy  EATOM  =    224016.65216645
  Solvation  Ediel_sol  =         0.00000000
  ---------------------------------------------------
  free energy    TOTEN  =      -353.86161267 eV

  energy without entropy =     -353.71650510  energy(sigma->0) =     -353.81324348


--------------------------------------------------------------------------------------------------------




----------------------------------------- Iteration    1(  13)  ---------------------------------------


    POTLOK:  cpu time    0.7129: real time    0.7132
    SETDIJ:  cpu time    0.0950: real time    0.0942
     EDDAV:  cpu time  225.4317: real time  225.2463
       DOS:  cpu time    0.0050: real time    0.0044
    CHARGE:  cpu time   14.5648: real time   14.5536
    MIXING:  cpu time    0.0220: real time    0.0208
    --------------------------------------------
      LOOP:  cpu time  240.8314: real time  240.6333

 eigenvalue-minimisations  : 11528
 total energy-change (2. order) : 0.6834802E-05  (-0.8004500E-05)
 number of electron    1023.9999788 magnetization      46.2353321
 augmentation part      607.5063383 magnetization      39.6972413

 Broyden mixing:
  rms(total) = 0.17826E-02    rms(broyden)= 0.17818E-02
  rms(prec ) = 0.22705E-02
  weight for this iteration     100.00

 eigenvalues of (default mixing * dielectric matrix)
  average eigenvalue GAMMA=   1.2152
  2.4504  2.0419  1.5669  0.9795  0.5402  0.6230  0.7599  0.7599

 Free energy of the ion-electron system (eV)
  ---------------------------------------------------
  alpha Z        PSCENC =      7925.72117195
  Ewald energy   TEWEN  =   -142726.55438451
  -Hartree energ DENC   =    -66214.38004100
  -exchange      EXHF   =         0.00000000
  -V(xc)+E(xc)   XCENC  =      5592.84544843
  PAW double counting   =    169980.41656773  -179006.65310440
  entropy T*S    EENTRO =        -0.14531439
  eigenvalues    EBANDS =    -19921.76411609
  atomic energy  EATOM  =    224016.65216645
  Solvation  Ediel_sol  =         0.00000000
  ---------------------------------------------------
  free energy    TOTEN  =      -353.86160583 eV

  energy without entropy =     -353.71629144  energy(sigma->0) =     -353.81316770


--------------------------------------------------------------------------------------------------------




----------------------------------------- Iteration    1(  14)  ---------------------------------------


    POTLOK:  cpu time    0.7109: real time    0.7103
    SETDIJ:  cpu time    0.0940: real time    0.0939
     EDDAV:  cpu time  171.7479: real time  171.6094
       DOS:  cpu time    0.0040: real time    0.0044
    CHARGE:  cpu time   14.3528: real time   14.3409
    MIXING:  cpu time    0.0230: real time    0.0228
    --------------------------------------------
      LOOP:  cpu time  186.9326: real time  186.7825

 eigenvalue-minimisations  :  7960
 total energy-change (2. order) : 0.1290723E-04  (-0.5046684E-06)
 number of electron    1023.9999788 magnetization      46.2337235
 augmentation part      607.5046491 magnetization      39.6987879

 Broyden mixing:
  rms(total) = 0.11432E-02    rms(broyden)= 0.11432E-02
  rms(prec ) = 0.14503E-02
  weight for this iteration     100.00

 eigenvalues of (default mixing * dielectric matrix)
  average eigenvalue GAMMA=   1.2571
  2.4595  2.4595  1.8960  0.9871  0.8730  0.8321  0.5399  0.6280  0.6388

 Free energy of the ion-electron system (eV)
  ---------------------------------------------------
  alpha Z        PSCENC =      7925.72117195
  Ewald energy   TEWEN  =   -142726.55438451
  -Hartree energ DENC   =    -66214.77026082
  -exchange      EXHF   =         0.00000000
  -V(xc)+E(xc)   XCENC  =      5592.86083860
  PAW double counting   =    169984.74633341  -179010.72766871
  entropy T*S    EENTRO =        -0.14526136
  eigenvalues    EBANDS =    -19921.64452794
  atomic energy  EATOM  =    224016.65216645
  Solvation  Ediel_sol  =         0.00000000
  ---------------------------------------------------
  free energy    TOTEN  =      -353.86159293 eV

  energy without entropy =     -353.71633157  energy(sigma->0) =     -353.81317247


--------------------------------------------------------------------------------------------------------




----------------------------------------- Iteration    1(  15)  ---------------------------------------


    POTLOK:  cpu time    0.7049: real time    0.7037
    SETDIJ:  cpu time    0.0930: real time    0.0931
     EDDAV:  cpu time  175.5443: real time  175.4006
       DOS:  cpu time    0.0040: real time    0.0045
    CHARGE:  cpu time   14.3998: real time   14.3876
    MIXING:  cpu time    0.0240: real time    0.0231
    --------------------------------------------
      LOOP:  cpu time  190.7700: real time  190.6133

 eigenvalue-minimisations  :  8320
 total energy-change (2. order) : 0.8850126E-05  (-0.4402509E-06)
 number of electron    1023.9999788 magnetization      46.2332168
 augmentation part      607.4995591 magnetization      39.6982127

 Broyden mixing:
  rms(total) = 0.81282E-04    rms(broyden)= 0.80425E-04
  rms(prec ) = 0.94610E-04
  weight for this iteration     100.00

 eigenvalues of (default mixing * dielectric matrix)
  average eigenvalue GAMMA=   1.2399
  2.6462  2.4088  1.9180  1.0187  1.0187  0.5399  0.7843  0.7843  0.6276  0.6522

 Free energy of the ion-electron system (eV)
  ---------------------------------------------------
  alpha Z        PSCENC =      7925.72117195
  Ewald energy   TEWEN  =   -142726.55438451
  -Hartree energ DENC   =    -66215.16142836
  -exchange      EXHF   =         0.00000000
  -V(xc)+E(xc)   XCENC  =      5592.87566023
  PAW double counting   =    169987.77716288  -179013.65293812
  entropy T*S    EENTRO =        -0.14519536
  eigenvalues    EBANDS =    -19921.37379923
  atomic energy  EATOM  =    224016.65216645
  Solvation  Ediel_sol  =         0.00000000
  ---------------------------------------------------
  free energy    TOTEN  =      -353.86158408 eV

  energy without entropy =     -353.71638871  energy(sigma->0) =     -353.81318562


--------------------------------------------------------------------------------------------------------




----------------------------------------- Iteration    1(  16)  ---------------------------------------


    POTLOK:  cpu time    0.6959: real time    0.6961
    SETDIJ:  cpu time    0.0940: real time    0.0938
     EDDAV:  cpu time  134.7415: real time  135.0675
       DOS:  cpu time    0.0050: real time    0.0049
    --------------------------------------------
      LOOP:  cpu time  135.5364: real time  135.8629

 eigenvalue-minimisations  :  5448
 total energy-change (2. order) :-0.8329516E-07  (-0.1254036E-07)
 number of electron    1023.9999788 magnetization      46.2332168
 augmentation part      607.4995591 magnetization      39.6982127

 Free energy of the ion-electron system (eV)
  ---------------------------------------------------
  alpha Z        PSCENC =      7925.72117195
  Ewald energy   TEWEN  =   -142726.55438451
  -Hartree energ DENC   =    -66215.15819279
  -exchange      EXHF   =         0.00000000
  -V(xc)+E(xc)   XCENC  =      5592.87570387
  PAW double counting   =    169987.79568065  -179013.67516635
  entropy T*S    EENTRO =        -0.14518927
  eigenvalues    EBANDS =    -19921.37337416
  atomic energy  EATOM  =    224016.65216645
  Solvation  Ediel_sol  =         0.00000000
  ---------------------------------------------------
  free energy    TOTEN  =      -353.86158416 eV

  energy without entropy =     -353.71639489  energy(sigma->0) =     -353.81318774


--------------------------------------------------------------------------------------------------------




 average (electrostatic) potential at core
  the test charge radii are     0.8614
  (the norm of the test charge is              1.0000)
       1 -81.5551       2 -81.5552       3 -81.5551       4 -81.5552       5 -81.5552
       6 -81.5552       7 -81.5552       8 -81.5552       9 -81.5551      10 -81.5552
      11 -81.5551      12 -81.5552      13 -81.5552      14 -81.5552      15 -81.5552
      16 -81.5552      17 -81.5552      18 -81.5552      19 -81.5552      20 -81.5552
      21 -81.5552      22 -81.5552      23 -81.5552      24 -81.5552      25 -81.5552
      26 -81.5552      27 -81.5552      28 -81.5552      29 -81.5552      30 -81.5552
      31 -81.5552      32 -81.5552      33 -81.5551      34 -81.5552      35 -81.5551
      36 -81.5552      37 -81.5552      38 -81.5552      39 -81.5552      40 -81.5552
      41 -81.5551      42 -81.5552      43 -81.5551      44 -81.5552      45 -81.5552
      46 -81.5552      47 -81.5552      48 -81.5552      49 -81.5552      50 -81.5552
      51 -81.5552      52 -81.5552      53 -81.5552      54 -81.5552      55 -81.5552
      56 -81.5552      57 -81.5552      58 -81.5552      59 -81.5552      60 -81.5552
      61 -81.5552      62 -81.5552      63 -81.5552      64 -81.5552
 
 
 
 E-fermi :   5.4051     XC(G=0): -12.4165     alpha+bet :-11.9025


 spin component 1

 k-point     1 :       0.0000    0.0000    0.0000
  band No.  band energies     occupation 
      1     -58.3367      1.00000
      2     -58.3366      1.00000
      3     -58.3366      1.00000
      4     -58.3366      1.00000
      5     -58.3320      1.00000
      6     -58.3320      1.00000
      7     -58.3320      1.00000
      8     -58.3212      1.00000
      9     -58.3212      1.00000
     10     -58.3212      1.00000
     11     -58.3212      1.00000
     12     -58.3212      1.00000
     13     -58.3212      1.00000
     14     -58.3211      1.00000
     15     -58.3211      1.00000
     16     -58.3211      1.00000
     17     -58.3211      1.00000
     18     -58.3211      1.00000
     19     -58.3211      1.00000
     20     -58.3211      1.00000
     21     -58.3211      1.00000
     22     -58.3211      1.00000
     23     -58.3211      1.00000
     24     -58.3211      1.00000
     25     -58.3211      1.00000
     26     -58.3211      1.00000
     27     -58.3211      1.00000
     28     -58.3211      1.00000
     29     -58.3211      1.00000
     30     -58.3211      1.00000
     31     -58.3211      1.00000
     32     -58.3104      1.00000
     33     -58.3104      1.00000
     34     -58.3104      1.00000
     35     -58.3103      1.00000
     36     -58.3103      1.00000
     37     -58.3103      1.00000
     38     -58.3103      1.00000
     39     -58.3103      1.00000
     40     -58.3103      1.00000
     41     -58.3103      1.00000
     42     -58.3103      1.00000
     43     -58.3103      1.00000
     44     -58.3056      1.00000
     45     -58.3056      1.00000
     46     -58.3056      1.00000
     47     -58.3056      1.00000
     48     -58.3056      1.00000
     49     -58.3056      1.00000
     50     -58.3056      1.00000
     51     -58.3056      1.00000
     52     -58.3056      1.00000
     53     -58.3056      1.00000
     54     -58.3056      1.00000
     55     -58.3056      1.00000
     56     -58.2898      1.00000
     57     -58.2898      1.00000
     58     -58.2898      1.00000
     59     -58.2898      1.00000
     60     -58.2898      1.00000
     61     -58.2898      1.00000
     62     -58.2898      1.00000
     63     -58.2898      1.00000
     64     -58.2880      1.00000
     65     -58.2880      1.00000
     66     -58.2880      1.00000
     67     -58.2880      1.00000
     68     -58.2880      1.00000
     69     -58.2880      1.00000
     70     -58.2833      1.00000
     71     -58.2833      1.00000
     72     -58.2833      1.00000
     73     -58.2833      1.00000
     74     -58.2833      1.00000
     75     -58.2833      1.00000
     76     -58.2833      1.00000
     77     -58.2833      1.00000
     78     -58.2833      1.00000
     79     -58.2833      1.00000
     80     -58.2833      1.00000
     81     -58.2833      1.00000
     82     -58.2816      1.00000
     83     -58.2816      1.00000
     84     -58.2816      1.00000
     85     -58.2816      1.00000
     86     -58.2816      1.00000
     87     -58.2815      1.00000
     88     -58.2815      1.00000
     89     -58.2815      1.00000
     90     -58.2815      1.00000
     91     -58.2815      1.00000
     92     -58.2815      1.00000
     93     -58.2815      1.00000
     94     -58.2815      1.00000
     95     -58.2815      1.00000
     96     -58.2815      1.00000
     97     -58.2815      1.00000
     98     -58.2815      1.00000
     99     -58.2815      1.00000
    100     -58.2815      1.00000
    101     -58.2815      1.00000
    102     -58.2815      1.00000
    103     -58.2815      1.00000
    104     -58.2815      1.00000
    105     -58.2815      1.00000
    106     -58.2797      1.00000
    107     -58.2797      1.00000
    108     -58.2797      1.00000
    109     -58.2797      1.00000
    110     -58.2797      1.00000
    111     -58.2797      1.00000
    112     -58.2791      1.00000
    113     -58.2791      1.00000
    114     -58.2791      1.00000
    115     -58.2790      1.00000
    116     -58.2790      1.00000
    117     -58.2790      1.00000
    118     -58.2683      1.00000
    119     -58.2683      1.00000
    120     -58.2683      1.00000
    121     -58.2683      1.00000
    122     -58.2683      1.00000
    123     -58.2683      1.00000
    124     -58.2683      1.00000
    125     -58.2683      1.00000
    126     -58.2683      1.00000
    127     -58.2683      1.00000
    128     -58.2683      1.00000
    129     -58.2683      1.00000
    130     -58.2683      1.00000
    131     -58.2683      1.00000
    132     -58.2683      1.00000
    133     -58.2683      1.00000
    134     -58.2683      1.00000
    135     -58.2683      1.00000
    136     -58.2683      1.00000
    137     -58.2683      1.00000
    138     -58.2683      1.00000
    139     -58.2683      1.00000
    140     -58.2682      1.00000
    141     -58.2682      1.00000
    142     -58.2611      1.00000
    143     -58.2611      1.00000
    144     -58.2611      1.00000
    145     -58.2611      1.00000
    146     -58.2611      1.00000
    147     -58.2611      1.00000
    148     -58.2610      1.00000
    149     -58.2610      1.00000
    150     -58.2610      1.00000
    151     -58.2610      1.00000
    152     -58.2610      1.00000
    153     -58.2610      1.00000
    154     -58.2575      1.00000
    155     -58.2575      1.00000
    156     -58.2575      1.00000
    157     -58.2575      1.00000
    158     -58.2575      1.00000
    159     -58.2575      1.00000
    160     -58.2575      1.00000
    161     -58.2575      1.00000
    162     -58.2575      1.00000
    163     -58.2574      1.00000
    164     -58.2574      1.00000
    165     -58.2574      1.00000
    166     -58.2574      1.00000
    167     -58.2574      1.00000
    168     -58.2574      1.00000
    169     -58.2574      1.00000
    170     -58.2574      1.00000
    171     -58.2574      1.00000
    172     -58.2574      1.00000
    173     -58.2574      1.00000
    174     -58.2504      1.00000
    175     -58.2504      1.00000
    176     -58.2504      1.00000
    177     -58.2503      1.00000
    178     -58.2503      1.00000
    179     -58.2503      1.00000
    180     -58.2503      1.00000
    181     -58.2503      1.00000
    182     -58.2503      1.00000
    183     -58.2503      1.00000
    184     -58.2503      1.00000
    185     -58.2503      1.00000
    186     -58.2503      1.00000
    187     -58.2503      1.00000
    188     -58.2503      1.00000
    189     -58.2503      1.00000
    190     -58.2434      1.00000
    191     -58.2433      1.00000
    192     -58.2433      1.00000
    193      -2.2261      1.00000
    194      -0.2968      1.00000
    195      -0.2968      1.00000
    196      -0.2967      1.00000
    197      -0.2967      1.00000
    198      -0.2967      1.00000
    199      -0.2967      1.00000
    200      -0.2967      1.00000
    201      -0.2967      1.00000
    202       0.2942      1.00000
    203       0.2942      1.00000
    204       0.2942      1.00000
    205       0.2942      1.00000
    206       0.2942      1.00000
    207       0.2942      1.00000
    208       1.5560      1.00000
    209       1.5561      1.00000
    210       1.5561      1.00000
    211       1.5561      1.00000
    212       1.8183      1.00000
    213       1.8183      1.00000
    214       1.8183      1.00000
    215       1.9680      1.00000
    216       1.9680      1.00000
    217       1.9680      1.00000
    218       1.9680      1.00000
    219       1.9680      1.00000
    220       1.9680      1.00000
    221       1.9680      1.00000
    222       1.9680      1.00000
    223       1.9680      1.00000
    224       1.9680      1.00000
    225       1.9680      1.00000
    226       1.9680      1.00000
    227       2.1250      1.00000
    228       2.1250      1.00000
    229       2.1250      1.00000
    230       2.1731      1.00000
    231       2.1731      1.00000
    232       2.1731      1.00000
    233       2.1731      1.00000
    234       2.1731      1.00000
    235       2.1731      1.00000
    236       2.1731      1.00000
    237       2.1731      1.00000
    238       2.1731      1.00000
    239       2.1731      1.00000
    240       2.1731      1.00000
    241       2.1731      1.00000
    242       2.1731      1.00000
    243       2.1731      1.00000
    244       2.1731      1.00000
    245       2.1731      1.00000
    246       2.1731      1.00000
    247       2.1731      1.00000
    248       2.1731      1.00000
    249       2.1731      1.00000
    250       2.1731      1.00000
    251       2.1732      1.00000
    252       2.1732      1.00000
    253       2.1732      1.00000
    254       2.4918      1.00000
    255       2.4918      1.00000
    256       2.4918      1.00000
    257       2.4918      1.00000
    258       2.4918      1.00000
    259       2.4918      1.00000
    260       2.6986      1.00000
    261       2.6986      1.00000
    262       2.6986      1.00000
    263       2.6986      1.00000
    264       2.6986      1.00000
    265       2.6986      1.00000
    266       2.6986      1.00000
    267       2.6986      1.00000
    268       2.6986      1.00000
    269       2.6986      1.00000
    270       2.6986      1.00000
    271       2.6986      1.00000
    272       2.6986      1.00000
    273       2.6986      1.00000
    274       2.6986      1.00000
    275       2.6986      1.00000
    276       2.6986      1.00000
    277       2.6986      1.00000
    278       2.6986      1.00000
    279       2.6986      1.00000
    280       2.6986      1.00000
    281       2.6986      1.00000
    282       2.6986      1.00000
    283       2.6986      1.00000
    284       2.7317      1.00000
    285       2.7317      1.00000
    286       2.7317      1.00000
    287       2.7317      1.00000
    288       2.7317      1.00000
    289       2.7317      1.00000
    290       2.9376      1.00000
    291       2.9376      1.00000
    292       2.9376      1.00000
    293       2.9376      1.00000
    294       2.9376      1.00000
    295       2.9376      1.00000
    296       2.9377      1.00000
    297       2.9377      1.00000
    298       2.9377      1.00000
    299       2.9377      1.00000
    300       2.9377      1.00000
    301       2.9377      1.00000
    302       2.9393      1.00000
    303       2.9393      1.00000
    304       2.9393      1.00000
    305       2.9393      1.00000
    306       2.9393      1.00000
    307       2.9393      1.00000
    308       2.9393      1.00000
    309       2.9393      1.00000
    310       2.9393      1.00000
    311       2.9393      1.00000
    312       2.9393      1.00000
    313       2.9393      1.00000
    314       3.1650      1.00000
    315       3.1650      1.00000
    316       3.1650      1.00000
    317       3.1650      1.00000
    318       3.1650      1.00000
    319       3.1650      1.00000
    320       3.1650      1.00000
    321       3.1650      1.00000
    322       3.1978      1.00000
    323       3.1978      1.00000
    324       3.1978      1.00000
    325       3.1978      1.00000
    326       3.1978      1.00000
    327       3.1978      1.00000
    328       3.1978      1.00000
    329       3.1978      1.00000
    330       3.1978      1.00000
    331       3.1978      1.00000
    332       3.1978      1.00000
    333       3.1978      1.00000
    334       3.3726      1.00000
    335       3.3726      1.00000
    336       3.3726      1.00000
    337       3.4060      1.00000
    338       3.4060      1.00000
    339       3.4060      1.00000
    340       3.4060      1.00000
    341       3.4060      1.00000
    342       3.4060      1.00000
    343       3.4060      1.00000
    344       3.4060      1.00000
    345       3.4303      1.00000
    346       3.4303      1.00000
    347       3.4303      1.00000
    348       3.4303      1.00000
    349       3.4303      1.00000
    350       3.4303      1.00000
    351       3.4303      1.00000
    352       3.4303      1.00000
    353       3.4303      1.00000
    354       3.4303      1.00000
    355       3.4303      1.00000
    356       3.4303      1.00000
    357       3.4303      1.00000
    358       3.4303      1.00000
    359       3.4303      1.00000
    360       3.4303      1.00000
    361       3.4303      1.00000
    362       3.4303      1.00000
    363       3.4303      1.00000
    364       3.4303      1.00000
    365       3.4304      1.00000
    366       3.4304      1.00000
    367       3.4304      1.00000
    368       3.4304      1.00000
    369       3.5440      1.00000
    370       3.5440      1.00000
    371       3.5440      1.00000
    372       3.5440      1.00000
    373       3.5440      1.00000
    374       3.5440      1.00000
    375       3.5441      1.00000
    376       3.5441      1.00000
    377       3.5441      1.00000
    378       3.5441      1.00000
    379       3.5441      1.00000
    380       3.5441      1.00000
    381       3.5441      1.00000
    382       3.5441      1.00000
    383       3.5441      1.00000
    384       3.5441      1.00000
    385       3.8195      1.00000
    386       3.8195      1.00000
    387       3.8195      1.00000
    388       3.8195      1.00000
    389       3.8195      1.00000
    390       3.8195      1.00000
    391       3.9367      1.00000
    392       3.9367      1.00000
    393       3.9367      1.00000
    394       3.9367      1.00000
    395       3.9367      1.00000
    396       3.9367      1.00000
    397       3.9367      1.00000
    398       3.9367      1.00000
    399       3.9367      1.00000
    400       3.9367      1.00000
    401       3.9367      1.00000
    402       3.9367      1.00000
    403       3.9739      1.00000
    404       3.9739      1.00000
    405       3.9739      1.00000
    406       3.9739      1.00000
    407       3.9739      1.00000
    408       3.9739      1.00000
    409       3.9739      1.00000
    410       3.9739      1.00000
    411       3.9739      1.00000
    412       3.9740      1.00000
    413       3.9740      1.00000
    414       3.9740      1.00000
    415       4.0204      1.00000
    416       4.0204      1.00000
    417       4.0204      1.00000
    418       4.0204      1.00000
    419       4.0204      1.00000
    420       4.0204      1.00000
    421       4.0204      1.00000
    422       4.0204      1.00000
    423       4.0204      1.00000
    424       4.0204      1.00000
    425       4.0204      1.00000
    426       4.0204      1.00000
    427       4.0204      1.00000
    428       4.0204      1.00000
    429       4.0204      1.00000
    430       4.0204      1.00000
    431       4.0204      1.00000
    432       4.0204      1.00000
    433       4.0204      1.00000
    434       4.0204      1.00000
    435       4.0204      1.00000
    436       4.0205      1.00000
    437       4.0205      1.00000
    438       4.0205      1.00000
    439       4.1174      1.00000
    440       4.1174      1.00000
    441       4.1174      1.00000
    442       4.1174      1.00000
    443       4.1174      1.00000
    444       4.1174      1.00000
    445       4.1174      1.00000
    446       4.1174      1.00000
    447       4.1174      1.00000
    448       4.1174      1.00000
    449       4.1174      1.00000
    450       4.1174      1.00000
    451       4.1949      1.00000
    452       4.1949      1.00000
    453       4.1949      1.00000
    454       4.1949      1.00000
    455       4.1949      1.00000
    456       4.1949      1.00000
    457       4.2301      1.00000
    458       4.2301      1.00000
    459       4.2765      1.00000
    460       4.2765      1.00000
    461       4.2765      1.00000
    462       4.2765      1.00000
    463       4.2765      1.00000
    464       4.2765      1.00000
    465       4.2765      1.00000
    466       4.2765      1.00000
    467       4.2765      1.00000
    468       4.2765      1.00000
    469       4.2765      1.00000
    470       4.2765      1.00000
    471       4.2765      1.00000
    472       4.2766      1.00000
    473       4.2766      1.00000
    474       4.2766      1.00000
    475       4.4792      1.00000
    476       4.4792      1.00000
    477       4.4792      1.00000
    478       4.4792      1.00000
    479       4.4792      1.00000
    480       4.4792      1.00000
    481       4.6838      1.00000
    482       4.6838      1.00000
    483       4.6838      1.00000
    484       4.6838      1.00000
    485       4.6838      1.00000
    486       4.6839      1.00000
    487       4.6839      1.00000
    488       4.6839      1.00000
    489       4.7168      1.00001
    490       4.7168      1.00001
    491       4.7168      1.00001
    492       4.7168      1.00001
    493       4.7168      1.00001
    494       4.7168      1.00001
    495       4.7168      1.00001
    496       4.7168      1.00001
    497       4.7168      1.00001
    498       4.7168      1.00001
    499       4.7168      1.00001
    500       4.7168      1.00001
    501       4.7168      1.00001
    502       4.7168      1.00001
    503       4.7168      1.00001
    504       4.7168      1.00001
    505       4.7168      1.00001
    506       4.7168      1.00001
    507       4.7169      1.00001
    508       4.7169      1.00001
    509       4.7169      1.00001
    510       4.7169      1.00001
    511       4.7169      1.00001
    512       4.7169      1.00001
    513       4.7345      1.00001
    514       4.7345      1.00001
    515       4.7345      1.00001
    516       4.7643      1.00003
    517       4.7643      1.00003
    518       4.7643      1.00003
    519       4.7643      1.00003
    520       4.7643      1.00003
    521       4.7643      1.00003
    522       4.7647      1.00003
    523       4.7647      1.00003
    524       4.7647      1.00003
    525       4.7647      1.00003
    526       4.7647      1.00003
    527       4.7647      1.00003
    528       5.4476      0.32476
    529       5.4476      0.32476
    530       5.4476      0.32476
    531       5.4477      0.32433
    532       5.9238     -0.00076
    533       5.9238     -0.00076
    534       5.9238     -0.00076
    535       5.9238     -0.00076
    536       5.9238     -0.00076
    537       5.9238     -0.00076
    538       5.9238     -0.00076
    539       5.9238     -0.00076
    540       5.9238     -0.00076
    541       5.9238     -0.00076
    542       5.9238     -0.00076
    543       5.9238     -0.00076
    544       7.1093     -0.00000
    545       7.1093     -0.00000
    546       7.1093     -0.00000
    547       7.1093     -0.00000
    548       7.1093     -0.00000
    549       7.1093     -0.00000
    550       7.1093     -0.00000
    551       7.1093     -0.00000
    552       7.1093     -0.00000
    553       7.1093     -0.00000
    554       7.1093     -0.00000
    555       7.1093     -0.00000
    556       7.1093     -0.00000
    557       7.1093     -0.00000
    558       7.1093     -0.00000
    559       7.1093     -0.00000
    560       7.1093     -0.00000
    561       7.1093     -0.00000
    562       7.1094     -0.00000
    563       7.1094     -0.00000
    564       7.1094     -0.00000
    565       7.1094     -0.00000
    566       7.1094     -0.00000
    567       7.1094     -0.00000
    568       7.6942     -0.00000
    569       7.6942     -0.00000
    570       7.6942     -0.00000
    571       9.5926     -0.00000
    572       9.5926     -0.00000
    573       9.5926     -0.00000
    574       9.5926     -0.00000
    575      11.9542      0.00000
    576      11.9542      0.00000
    577      11.9542      0.00000
    578      11.9542      0.00000
    579      11.9542      0.00000
    580      11.9542      0.00000
    581      11.9543      0.00000
    582      11.9543      0.00000
[...]
      7.578750  3.789375  3.789375    -0.014707    0.014544   -0.123277  
      9.473438  5.684063  3.789375    -0.014707    0.014544   -0.123277  
      5.684063  0.000000  5.684063    -0.014707    0.014544   -0.123277  
      7.578750  1.894688  5.684063    -0.014707    0.014544   -0.123277  
      9.473438  3.789375  5.684063    -0.014707    0.014544   -0.123277  
     11.368125  5.684063  5.684063    -0.014707    0.014544   -0.123277  
      0.000000  1.894688  1.894688    -0.014707    0.014544   -0.123277  
      1.894688  3.789375  1.894688    -0.014707    0.014544   -0.123277  
      3.789375  5.684063  1.894688    -0.014707    0.014544   -0.123277  
      5.684063  7.578750  1.894688    -0.014707    0.014544   -0.123277  
      1.894688  1.894688  3.789375    -0.014707    0.014544   -0.123277  
      3.789375  3.789375  3.789375    -0.014707    0.014544   -0.123277  
      5.684063  5.684063  3.789375    -0.014707    0.014544   -0.123277  
      7.578750  7.578750  3.789375    -0.014707    0.014544   -0.123277  
      3.789375  1.894688  5.684063    -0.014707    0.014544   -0.123277  
      5.684063  3.789375  5.684063    -0.014707    0.014544   -0.123277  
      7.578750  5.684063  5.684063    -0.014707    0.014544   -0.123277  
      9.473438  7.578750  5.684063    -0.014707    0.014544   -0.123277  
      5.684063  1.894688  7.578750    -0.014707    0.014544   -0.123277  
      7.578750  3.789375  7.578750    -0.014707    0.014544   -0.123277  
      9.473438  5.684063  7.578750    -0.014707    0.014544   -0.123277  
     11.368125  7.578750  7.578750    -0.014707    0.014544   -0.123277  
      0.000000  3.789375  3.789375    -0.014707    0.014544   -0.123277  
      1.894688  5.684063  3.789375    -0.014707    0.014544   -0.123277  
      3.789375  7.578750  3.789375    -0.014707    0.014544   -0.123277  
      5.684063  9.473438  3.789375    -0.014707    0.014544   -0.123277  
      1.894688  3.789375  5.684063    -0.014707    0.014544   -0.123277  
      3.789375  5.684063  5.684063    -0.014707    0.014544   -0.123277  
      5.684063  7.578750  5.684063    -0.014707    0.014544   -0.123277  
      7.578750  9.473438  5.684063    -0.014707    0.014544   -0.123277  
      3.789375  3.789375  7.578750    -0.014707    0.014544   -0.123277  
      5.684063  5.684063  7.578750    -0.014707    0.014544   -0.123277  
      7.578750  7.578750  7.578750    -0.014707    0.014544   -0.123277  
      9.473438  9.473438  7.578750    -0.014707    0.014544   -0.123277  
      5.684063  3.789375  9.473438    -0.014707    0.014544   -0.123277  
      7.578750  5.684063  9.473438    -0.014707    0.014544   -0.123277  
      9.473438  7.578750  9.473438    -0.014707    0.014544   -0.123277  
     11.368125  9.473438  9.473438    -0.014707    0.014544   -0.123277  
      0.000000  5.684063  5.684063    -0.014707    0.014544   -0.123277  
      1.894688  7.578750  5.684063    -0.014707    0.014544   -0.123277  
      3.789375  9.473438  5.684063    -0.014707    0.014544   -0.123277  
      5.684063 11.368125  5.684063    -0.014707    0.014544   -0.123277  
      1.894688  5.684063  7.578750    -0.014707    0.014544   -0.123277  
      3.789375  7.578750  7.578750    -0.014707    0.014544   -0.123277  
      5.684063  9.473438  7.578750    -0.014707    0.014544   -0.123277  
      7.578750 11.368125  7.578750    -0.014707    0.014544   -0.123277  
      3.789375  5.684063  9.473438    -0.014707    0.014544   -0.123277  
      5.684063  7.578750  9.473438    -0.014707    0.014544   -0.123277  
      7.578750  9.473438  9.473438    -0.014707    0.014544   -0.123277  
      9.473438 11.368125  9.473438    -0.014707    0.014544   -0.123277  
      5.684063  5.684063 11.368125    -0.014707    0.014544   -0.123277  
      7.578750  7.578750 11.368125    -0.014707    0.014544   -0.123277  
      9.473438  9.473438 11.368125    -0.014707    0.014544   -0.123277  
     11.368125 11.368125 11.368125    -0.014707    0.014544   -0.123277  
 
 192 f  =    0.000001 THz     0.000006 2PiTHz    0.000032 cm-1     0.000004 meV
             X         Y         Z           dx          dy          dz
      0.000000  0.000000  0.000000     0.087725    0.089047    0.000040  
      1.894688  1.894688  0.000000     0.087725    0.089047    0.000040  
      3.789375  3.789375  0.000000     0.087725    0.089047    0.000040  
      5.684063  5.684063  0.000000     0.087725    0.089047    0.000040  
      1.894688  0.000000  1.894688     0.087725    0.089047    0.000040  
      3.789375  1.894688  1.894688     0.087725    0.089047    0.000040  
      5.684063  3.789375  1.894688     0.087725    0.089047    0.000040  
      7.578750  5.684063  1.894688     0.087725    0.089047    0.000040  
      3.789375  0.000000  3.789375     0.087725    0.089047    0.000040  
      5.684063  1.894688  3.789375     0.087725    0.089047    0.000040  
      7.578750  3.789375  3.789375     0.087725    0.089047    0.000040  
      9.473438  5.684063  3.789375     0.087725    0.089047    0.000040  
      5.684063  0.000000  5.684063     0.087725    0.089047    0.000040  
      7.578750  1.894688  5.684063     0.087725    0.089047    0.000040  
      9.473438  3.789375  5.684063     0.087725    0.089047    0.000040  
     11.368125  5.684063  5.684063     0.087725    0.089047    0.000040  
      0.000000  1.894688  1.894688     0.087725    0.089047    0.000040  
      1.894688  3.789375  1.894688     0.087725    0.089047    0.000040  
      3.789375  5.684063  1.894688     0.087725    0.089047    0.000040  
      5.684063  7.578750  1.894688     0.087725    0.089047    0.000040  
      1.894688  1.894688  3.789375     0.087725    0.089047    0.000040  
      3.789375  3.789375  3.789375     0.087725    0.089047    0.000040  
      5.684063  5.684063  3.789375     0.087725    0.089047    0.000040  
      7.578750  7.578750  3.789375     0.087725    0.089047    0.000040  
      3.789375  1.894688  5.684063     0.087725    0.089047    0.000040  
      5.684063  3.789375  5.684063     0.087725    0.089047    0.000040  
      7.578750  5.684063  5.684063     0.087725    0.089047    0.000040  
      9.473438  7.578750  5.684063     0.087725    0.089047    0.000040  
      5.684063  1.894688  7.578750     0.087725    0.089047    0.000040  
      7.578750  3.789375  7.578750     0.087725    0.089047    0.000040  
      9.473438  5.684063  7.578750     0.087725    0.089047    0.000040  
     11.368125  7.578750  7.578750     0.087725    0.089047    0.000040  
      0.000000  3.789375  3.789375     0.087725    0.089047    0.000040  
      1.894688  5.684063  3.789375     0.087725    0.089047    0.000040  
      3.789375  7.578750  3.789375     0.087725    0.089047    0.000040  
      5.684063  9.473438  3.789375     0.087725    0.089047    0.000040  
      1.894688  3.789375  5.684063     0.087725    0.089047    0.000040  
      3.789375  5.684063  5.684063     0.087725    0.089047    0.000040  
      5.684063  7.578750  5.684063     0.087725    0.089047    0.000040  
      7.578750  9.473438  5.684063     0.087725    0.089047    0.000040  
      3.789375  3.789375  7.578750     0.087725    0.089047    0.000040  
      5.684063  5.684063  7.578750     0.087725    0.089047    0.000040  
      7.578750  7.578750  7.578750     0.087725    0.089047    0.000040  
      9.473438  9.473438  7.578750     0.087725    0.089047    0.000040  
      5.684063  3.789375  9.473438     0.087725    0.089047    0.000040  
      7.578750  5.684063  9.473438     0.087725    0.089047    0.000040  
      9.473438  7.578750  9.473438     0.087725    0.089047    0.000040  
     11.368125  9.473438  9.473438     0.087725    0.089047    0.000040  
      0.000000  5.684063  5.684063     0.087725    0.089047    0.000040  
      1.894688  7.578750  5.684063     0.087725    0.089047    0.000040  
      3.789375  9.473438  5.684063     0.087725    0.089047    0.000040  
      5.684063 11.368125  5.684063     0.087725    0.089047    0.000040  
      1.894688  5.684063  7.578750     0.087725    0.089047    0.000040  
      3.789375  7.578750  7.578750     0.087725    0.089047    0.000040  
      5.684063  9.473438  7.578750     0.087725    0.089047    0.000040  
      7.578750 11.368125  7.578750     0.087725    0.089047    0.000040  
      3.789375  5.684063  9.473438     0.087725    0.089047    0.000040  
      5.684063  7.578750  9.473438     0.087725    0.089047    0.000040  
      7.578750  9.473438  9.473438     0.087725    0.089047    0.000040  
      9.473438 11.368125  9.473438     0.087725    0.089047    0.000040  
      5.684063  5.684063 11.368125     0.087725    0.089047    0.000040  
      7.578750  7.578750 11.368125     0.087725    0.089047    0.000040  
      9.473438  9.473438 11.368125     0.087725    0.089047    0.000040  
     11.368125 11.368125 11.368125     0.087725    0.089047    0.000040  
 

 ELASTIC MODULI CONTR FROM IONIC RELAXATION (kBar)
 Direction    XX          YY          ZZ          XY          YZ          ZX
 --------------------------------------------------------------------------------
 XX           0.0000      0.0000      0.0000     -0.0000     -0.0000     -0.0000
 YY           0.0000      0.0000      0.0000     -0.0000     -0.0000     -0.0000
 ZZ           0.0000      0.0000      0.0000     -0.0000     -0.0000     -0.0000
 XY          -0.0000     -0.0000     -0.0000      0.0000      0.0000      0.0000
 YZ          -0.0000      0.0000     -0.0000     -0.0000      0.0000      0.0000
 ZX          -0.0000     -0.0000      0.0000      0.0000     -0.0000      0.0000
 --------------------------------------------------------------------------------



--------------------------------------------------------------------------------------------------------


  LATTYP: Found a face centered cubic cell.
 ALAT       =    15.1575000000
  
  Lattice vectors:
  
 A1 = (   0.0000000000,   7.5787500000,   7.5787500000)
 A2 = (   7.5787500000,   0.0000000000,   7.5787500000)
 A3 = (   7.5787500000,   7.5787500000,   0.0000000000)


Analysis of symmetry for initial positions (statically):
=====================================================================
 Subroutine PRICEL returns following result:
 
  LATTYP: Found a face centered cubic cell.
 ALAT       =     3.7893750000
  
  Lattice vectors:
  
 A1 = (   0.0000000000,   1.8946875000,   1.8946875000)
 A2 = (   1.8946875000,   0.0000000000,   1.8946875000)
 A3 = (   1.8946875000,   1.8946875000,   0.0000000000)
 
  64 primitive cells build up your supercell.
 

 Routine SETGRP: Setting up the symmetry group for a 
 face centered cubic supercell.


 Subroutine GETGRP returns: Found 48 space group operations
 (whereof 48 operations were pure point group operations)
 out of a pool of 48 trial point group operations.


The static configuration has the point symmetry O_h .


Analysis of symmetry for dynamics (positions and initial velocities):
=====================================================================
 Subroutine PRICEL returns following result:
 
  LATTYP: Found a face centered cubic cell.
 ALAT       =     3.7893750000
  
  Lattice vectors:
  
 A1 = (   0.0000000000,   1.8946875000,   1.8946875000)
 A2 = (   1.8946875000,   0.0000000000,   1.8946875000)
 A3 = (   1.8946875000,   1.8946875000,   0.0000000000)
 
  64 primitive cells build up your supercell.
 

 Routine SETGRP: Setting up the symmetry group for a 
 face centered cubic supercell.


 Subroutine GETGRP returns: Found 48 space group operations
 (whereof 48 operations were pure point group operations)
 out of a pool of 48 trial point group operations.


The dynamic configuration has the point symmetry O_h .


Analysis of structural, dynamic, and magnetic symmetry:
=====================================================================
 Subroutine PRICEL returns following result:
 
  LATTYP: Found a face centered cubic cell.
 ALAT       =     3.7893750000
  
  Lattice vectors:
  
 A1 = (   0.0000000000,   1.8946875000,   1.8946875000)
 A2 = (   1.8946875000,   0.0000000000,   1.8946875000)
 A3 = (   1.8946875000,   1.8946875000,   0.0000000000)
 
  64 primitive cells build up your supercell.
 

 Routine SETGRP: Setting up the symmetry group for a 
 face centered cubic supercell.


 Subroutine GETGRP returns: Found 48 space group operations
 (whereof 48 operations were pure point group operations)
 out of a pool of 48 trial point group operations.


The magnetic configuration has the point symmetry O_h .


 Subroutine INISYM returns: Found 48 space group operations
 (whereof 48 operations are pure point group operations),
 and found    64 'primitive' translations

 
 KPOINTS: Zr 15x15x15                             

Automatic generation of k-mesh.
Space group operators:
 irot       det(A)        alpha          n_x          n_y          n_z        tau_x        tau_y        tau_z
    1     1.000000     0.000001     1.000000     0.000000     0.000000     0.000000     0.000000     0.000000
    2    -1.000000     0.000001     1.000000     0.000000     0.000000     0.000000     0.000000     0.000000
    3     1.000000   120.000000    -0.577350    -0.577350    -0.577350     0.000000     0.000000     0.000000
    4    -1.000000   120.000000    -0.577350    -0.577350    -0.577350     0.000000     0.000000     0.000000
    5     1.000000   120.000000     0.577350     0.577350     0.577350     0.000000     0.000000     0.000000
    6    -1.000000   120.000000     0.577350     0.577350     0.577350     0.000000     0.000000     0.000000
    7     1.000000    90.000000     0.000000     0.000000    -1.000000     0.000000     0.000000     0.000000
    8    -1.000000    90.000000     0.000000     0.000000    -1.000000     0.000000     0.000000     0.000000
    9     1.000000   180.000000     0.000000     0.707107     0.707107     0.000000     0.000000     0.000000
   10    -1.000000   180.000000     0.000000     0.707107     0.707107     0.000000     0.000000     0.000000
   11     1.000000    90.000000     0.000000     1.000000     0.000000     0.000000     0.000000     0.000000
   12    -1.000000    90.000000     0.000000     1.000000     0.000000     0.000000     0.000000     0.000000
   13     1.000000   180.000000     0.000000     0.000000     1.000000     0.000000     0.000000     0.000000
   14    -1.000000   180.000000     0.000000     0.000000     1.000000     0.000000     0.000000     0.000000
   15     1.000000   120.000000    -0.577350     0.577350     0.577350     0.000000     0.000000     0.000000
   16    -1.000000   120.000000    -0.577350     0.577350     0.577350     0.000000     0.000000     0.000000
   17     1.000000   120.000000    -0.577350     0.577350    -0.577350     0.000000     0.000000     0.000000
   18    -1.000000   120.000000    -0.577350     0.577350    -0.577350     0.000000     0.000000     0.000000
   19     1.000000    90.000000     0.000000     0.000000     1.000000     0.000000     0.000000     0.000000
   20    -1.000000    90.000000     0.000000     0.000000     1.000000     0.000000     0.000000     0.000000
   21     1.000000    90.000000    -1.000000     0.000000     0.000000     0.000000     0.000000     0.000000
   22    -1.000000    90.000000    -1.000000     0.000000     0.000000     0.000000     0.000000     0.000000
   23     1.000000   180.000000     0.707107     0.000000     0.707107     0.000000     0.000000     0.000000
   24    -1.000000   180.000000     0.707107     0.000000     0.707107     0.000000     0.000000     0.000000
   25     1.000000   120.000000     0.577350    -0.577350     0.577350     0.000000     0.000000     0.000000
   26    -1.000000   120.000000     0.577350    -0.577350     0.577350     0.000000     0.000000     0.000000
   27     1.000000   120.000000    -0.577350    -0.577350     0.577350     0.000000     0.000000     0.000000
   28    -1.000000   120.000000    -0.577350    -0.577350     0.577350     0.000000     0.000000     0.000000
   29     1.000000   180.000000     1.000000     0.000000     0.000000     0.000000     0.000000     0.000000
   30    -1.000000   180.000000     1.000000     0.000000     0.000000     0.000000     0.000000     0.000000
   31     1.000000    90.000000     0.000000    -1.000000     0.000000     0.000000     0.000000     0.000000
   32    -1.000000    90.000000     0.000000    -1.000000     0.000000     0.000000     0.000000     0.000000
   33     1.000000   180.000000     0.707107     0.707107     0.000000     0.000000     0.000000     0.000000
   34    -1.000000   180.000000     0.707107     0.707107     0.000000     0.000000     0.000000     0.000000
   35     1.000000    90.000000     1.000000     0.000000     0.000000     0.000000     0.000000     0.000000
   36    -1.000000    90.000000     1.000000     0.000000     0.000000     0.000000     0.000000     0.000000
   37     1.000000   120.000000     0.577350    -0.577350    -0.577350     0.000000     0.000000     0.000000
   38    -1.000000   120.000000     0.577350    -0.577350    -0.577350     0.000000     0.000000     0.000000
   39     1.000000   180.000000     0.000000     1.000000     0.000000     0.000000     0.000000     0.000000
   40    -1.000000   180.000000     0.000000     1.000000     0.000000     0.000000     0.000000     0.000000
   41     1.000000   120.000000     0.577350     0.577350    -0.577350     0.000000     0.000000     0.000000
   42    -1.000000   120.000000     0.577350     0.577350    -0.577350     0.000000     0.000000     0.000000
   43     1.000000   180.000000     0.000000    -0.707107     0.707107     0.000000     0.000000     0.000000
   44    -1.000000   180.000000     0.000000    -0.707107     0.707107     0.000000     0.000000     0.000000
   45     1.000000   180.000000     0.707107    -0.707107     0.000000     0.000000     0.000000     0.000000
   46    -1.000000   180.000000     0.707107    -0.707107     0.000000     0.000000     0.000000     0.000000
   47     1.000000   180.000000     0.707107     0.000000    -0.707107     0.000000     0.000000     0.000000
   48    -1.000000   180.000000     0.707107     0.000000    -0.707107     0.000000     0.000000     0.000000
 
 Subroutine IBZKPT returns following result:
 ===========================================
 
 Found      4 irreducible k-points:
 
 Following reciprocal coordinates:
            Coordinates               Weight
  0.000000  0.000000  0.000000      1.000000
  0.333333  0.000000  0.000000      8.000000
  0.333333  0.333333  0.000000      6.000000
 -0.333333  0.333333  0.000000     12.000000
 
 Following cartesian coordinates:
            Coordinates               Weight
  0.000000  0.000000  0.000000      1.000000
 -0.021991  0.021991  0.021991      8.000000
  0.000000  0.000000  0.043983      6.000000
  0.043983 -0.043983  0.000000     12.000000
 
 writing wavefunctions
     LOOP+:  cpu time 6556.2773: real time 6564.7812
    4ORBIT:  cpu time    0.0000: real time    0.0000

 total amount of memory used by VASP on root node   606305. kBytes
========================================================================

   base      :      30000. kBytes
   nonlr-proj:      46103. kBytes
   fftplans  :      20120. kBytes
   grid      :      78194. kBytes
   one-center:       1990. kBytes
   wavefun   :     429898. kBytes
 
  
  
 General timing and accounting informations for this job:
 ========================================================
  
                  Total CPU time used (sec):    16146.679
                            User time (sec):    16064.047
                          System time (sec):       82.631
                         Elapsed time (sec):    16153.343
  
                   Maximum memory used (kb):     1495684.
                   Average memory used (kb):           0.
  
                          Minor page faults:       164360
                          Major page faults:            0
                 Voluntary context switches:         1387
