<?xml version="1.0" encoding="ISO-8859-1"?>
<modeling>
 <generator>
  <i name="program" type="string">vasp </i>
  <i name="version" type="string">5.4.1  </i>
  <i name="subversion" type="string">05Feb16 (build Oct 12 2016 17:31:35) complex                          parallel </i>
  <i name="platform" type="string">IFC91_ompi </i>
  <i name="date" type="string">2020 09 07 </i>
  <i name="time" type="string">23:29:12 </i>
 </generator>
 <incar>
  <i type="string" name="SYSTEM"> phonon of Zr bcc - omiga</i>
  <i type="string" name="PREC">h</i>
  <i type="int" name="ISPIN">     2</i>
  <i type="int" name="IBRION">     6</i>
  <i name="EDIFF">      0.00000100</i>
  <i type="int" name="NSW">     1</i>
  <v name="MAGMOM">      1.00000000      1.00000000      1.00000000      1.00000000      1.00000000      1.00000000      1.00000000      1.00000000      1.00000000      1.00000000      1.00000000      1.00000000      1.00000000      1.00000000      1.00000000      1.00000000      1.00000000      1.00000000      1.00000000      1.00000000
      1.00000000      1.00000000      1.00000000      1.00000000      1.00000000      1.00000000      1.00000000      1.00000000      1.00000000      1.00000000      1.00000000      1.00000000      1.00000000      1.00000000      1.00000000      1.00000000      1.00000000      1.00000000      1.00000000      1.00000000
      1.00000000      1.00000000      1.00000000      1.00000000      1.00000000      1.00000000      1.00000000      1.00000000      1.00000000      1.00000000      1.00000000      1.00000000      1.00000000      1.00000000      1.00000000      1.00000000      1.00000000      1.00000000      1.00000000      1.00000000
      1.00000000      1.00000000      1.00000000      1.00000000</v>
  <i type="string" name="LREAL">Auto</i>
  <i type="int" name="ISMEAR">     1</i>
  <i type="int" name="NWRITE">     0</i>
  <v type="int" name="KPOINT_BSE">    -1     0     0     0</v>
 </incar>
 <kpoints>
  <generation param="Gamma">
   <v type="int" name="divisions">       3        3        3 </v>
   <v name="usershift">      0.00000000       0.00000000       0.00000000 </v>
   <v name="genvec1">      0.33333333       0.00000000       0.00000000 </v>
   <v name="genvec2">      0.00000000       0.33333333       0.00000000 </v>
   <v name="genvec3">      0.00000000       0.00000000       0.33333333 </v>
   <v name="shift">      0.00000000       0.00000000       0.00000000 </v>
  </generation>
  <varray name="kpointlist" >
   <v>       0.00000000       0.00000000       0.00000000 </v>
   <v>       0.33333333       0.00000000       0.00000000 </v>
   <v>       0.33333333       0.33333333       0.00000000 </v>
   <v>      -0.33333333       0.33333333       0.00000000 </v>
  </varray>
  <varray name="weights" >
   <v>       0.03703704 </v>
   <v>       0.29629630 </v>
   <v>       0.22222222 </v>
   <v>       0.44444444 </v>
  </varray>
 </kpoints>
 <parameters>
  <separator name="general" >
   <i type="string" name="SYSTEM">phonon of Zr bcc - omiga</i>
   <i type="logical" name="LCOMPAT"> F  </i>
  </separator>
  <separator name="electronic" >
   <i type="string" name="PREC">h</i>
   <i name="ENMAX">    459.93125000</i>
   <i name="ENAUG">    703.44300000</i>
   <i name="EDIFF">      0.00000100</i>
   <i type="int" name="IALGO">    38</i>
   <i type="int" name="IWAVPR">    11</i>
   <i type="int" name="NBANDS">   648</i>
   <i name="NELECT">   1024.00000000</i>
   <i type="int" name="TURBO">     0</i>
   <i type="int" name="IRESTART">     0</i>
   <i type="int" name="NREBOOT">     0</i>
   <i type="int" name="NMIN">     0</i>
   <i name="EREF">      0.00000000</i>
   <separator name="electronic smearing" >
    <i type="int" name="ISMEAR">     1</i>
    <i name="SIGMA">      0.20000000</i>
    <i name="KSPACING">      0.50000000</i>
    <i type="logical" name="KGAMMA"> T  </i>
   </separator>
   <separator name="electronic projectors" >
    <i type="logical" name="LREAL"> T  </i>
    <v name="ROPT">     -0.00040000</v>
    <i type="int" name="LMAXPAW">  -100</i>
    <i type="int" name="LMAXMIX">     2</i>
    <i type="logical" name="NLSPLINE"> F  </i>
   </separator>
   <separator name="electronic startup" >
    <i type="int" name="ISTART">     0</i>
    <i type="int" name="ICHARG">     2</i>
    <i type="int" name="INIWAV">     1</i>
   </separator>
   <separator name="electronic spin" >
    <i type="int" name="ISPIN">     2</i>
    <i type="logical" name="LNONCOLLINEAR"> F  </i>
    <v name="MAGMOM">      1.00000000      1.00000000      1.00000000      1.00000000      1.00000000      1.00000000      1.00000000      1.00000000      1.00000000      1.00000000      1.00000000      1.00000000      1.00000000      1.00000000      1.00000000      1.00000000      1.00000000      1.00000000      1.00000000      1.00000000
      1.00000000      1.00000000      1.00000000      1.00000000      1.00000000      1.00000000      1.00000000      1.00000000      1.00000000      1.00000000      1.00000000      1.00000000      1.00000000      1.00000000      1.00000000      1.00000000      1.00000000      1.00000000      1.00000000      1.00000000
      1.00000000      1.00000000      1.00000000      1.00000000      1.00000000      1.00000000      1.00000000      1.00000000      1.00000000      1.00000000      1.00000000      1.00000000      1.00000000      1.00000000      1.00000000      1.00000000      1.00000000      1.00000000      1.00000000      1.00000000
      1.00000000      1.00000000      1.00000000      1.00000000</v>
    <i name="NUPDOWN">     -1.00000000</i>
    <i type="logical" name="LSORBIT"> F  </i>
    <v name="SAXIS">      0.00000000      0.00000000      1.00000000</v>
    <i type="logical" name="LSPIRAL"> F  </i>
    <v name="QSPIRAL">      0.00000000      0.00000000      0.00000000</v>
    <i type="logical" name="LZEROZ"> F  </i>
   </separator>
   <separator name="electronic exchange-correlation" >
    <i type="logical" name="LASPH"> F  </i>
    <i type="logical" name="LMETAGGA"> F  </i>
   </separator>
   <separator name="electronic convergence" >
    <i type="int" name="NELM">    60</i>
    <i type="int" name="NELMDL">     0</i>
    <i type="int" name="NELMIN">     2</i>
    <i name="ENINI">    459.93125000</i>
    <separator name="electronic convergence detail" >
     <i type="logical" name="LDIAG"> T  </i>
     <i type="logical" name="LSUBROT"> F  </i>
     <i name="WEIMIN">      0.00100000</i>
     <i name="EBREAK">      0.00000000</i>
     <i name="DEPER">      0.30000000</i>
     <i type="int" name="NRMM">     4</i>
     <i name="TIME">      0.40000000</i>
    </separator>
   </separator>
   <separator name="electronic mixer" >
    <i name="AMIX">      0.40000000</i>
    <i name="BMIX">      1.00000000</i>
    <i name="AMIN">      0.10000000</i>
    <i name="AMIX_MAG">      1.60000000</i>
    <i name="BMIX_MAG">      1.00000000</i>
    <separator name="electronic mixer details" >
     <i type="int" name="IMIX">     4</i>
     <i type="logical" name="MIXFIRST"> F  </i>
     <i type="int" name="MAXMIX">   -45</i>
     <i name="WC">    100.00000000</i>
     <i type="int" name="INIMIX">     1</i>
     <i type="int" name="MIXPRE">     1</i>
     <i type="int" name="MREMOVE">     5</i>
    </separator>
   </separator>
   <separator name="electronic dipolcorrection" >
    <i type="logical" name="LDIPOL"> F  </i>
    <i type="logical" name="LMONO"> F  </i>
    <i type="int" name="IDIPOL">     0</i>
    <i name="EPSILON">      1.00000000</i>
    <v name="DIPOL">   -100.00000000   -100.00000000   -100.00000000</v>
    <i name="EFIELD">      0.00000000</i>
   </separator>
  </separator>
  <separator name="grids" >
   <i type="int" name="NGX">    80</i>
   <i type="int" name="NGY">    80</i>
   <i type="int" name="NGZ">    80</i>
   <i type="int" name="NGXF">   126</i>
   <i type="int" name="NGYF">   126</i>
   <i type="int" name="NGZF">   126</i>
   <i type="logical" name="ADDGRID"> F  </i>
  </separator>
  <separator name="ionic" >
   <i type="int" name="NSW">   805</i>
   <i type="int" name="IBRION">     6</i>
   <i type="int" name="ISIF">     2</i>
   <i name="PSTRESS">      0.00000000</i>
   <i name="EDIFFG">      0.00001000</i>
   <i type="int" name="NFREE">     2</i>
   <i name="POTIM">      0.50000000</i>
   <i name="SMASS">     -3.00000000</i>
   <i name="SCALEE">      1.00000000</i>
  </separator>
  <separator name="ionic md" >
   <i name="TEBEG">      0.00010000</i>
   <i name="TEEND">      0.00010000</i>
   <i type="int" name="NBLOCK">     1</i>
   <i type="int" name="KBLOCK">     1</i>
   <i type="int" name="NPACO">   256</i>
   <i name="APACO">     16.00000000</i>
  </separator>
  <separator name="symmetry" >
   <i type="int" name="ISYM">     2</i>
   <i name="SYMPREC">      0.00001000</i>
  </separator>
  <separator name="dos" >
   <i type="logical" name="LORBIT"> F  </i>
   <v name="RWIGS">     -1.00000000</v>
   <i type="int" name="NEDOS">   301</i>
   <i name="EMIN">     10.00000000</i>
   <i name="EMAX">    -10.00000000</i>
   <i name="EFERMI">      0.00000000</i>
  </separator>
  <separator name="writing" >
   <i type="int" name="NWRITE">     0</i>
   <i type="logical" name="LWAVE"> T  </i>
   <i type="logical" name="LCHARG"> T  </i>
   <i type="logical" name="LPARD"> F  </i>
   <i type="logical" name="LVTOT"> F  </i>
   <i type="logical" name="LVHAR"> F  </i>
   <i type="logical" name="LELF"> F  </i>
   <i type="logical" name="LOPTICS"> F  </i>
   <v name="STM">      0.00000000      0.00000000      0.00000000      0.00000000      0.00000000      0.00000000      0.00000000</v>
  </separator>
  <separator name="performance" >
   <i type="int" name="NPAR">     4</i>
   <i type="int" name="NSIM">     4</i>
   <i type="int" name="NBLK">    -1</i>
   <i type="logical" name="LPLANE"> T  </i>
   <i type="logical" name="LSCALAPACK"> T  </i>
   <i type="logical" name="LSCAAWARE"> F  </i>
   <i type="logical" name="LSCALU"> F  </i>
   <i type="logical" name="LASYNC"> F  </i>
   <i type="logical" name="LORBITALREAL"> F  </i>
  </separator>
  <separator name="miscellaneous" >
   <i type="int" name="IDIOT">     3</i>
   <i type="logical" name="LMUSIC"> F  </i>
   <v name="POMASS">     58.69000000</v>
   <v name="DARWINR">      0.00000000</v>
   <v name="DARWINV">      1.00000000</v>
   <i type="logical" name="LCORR"> T  </i>
  </separator>
  <i type="logical" name="GGA_COMPAT"> T  </i>
  <i type="logical" name="LBERRY"> F  </i>
  <i type="int" name="ICORELEVEL">     0</i>
  <i type="logical" name="LDAU"> F  </i>
  <i type="int" name="I_CONSTRAINED_M">     0</i>
  <separator name="electronic exchange-correlation" >
   <i type="string" name="GGA">--</i>
   <i type="int" name="VOSKOWN">     0</i>
   <i type="logical" name="LHFCALC"> F  </i>
   <i type="string" name="PRECFOCK"></i>
   <i type="logical" name="LSYMGRAD"> F  </i>
   <i type="logical" name="LHFONE"> F  </i>
   <i type="logical" name="LRHFCALC"> F  </i>
   <i type="logical" name="LTHOMAS"> F  </i>
   <i type="logical" name="LMODELHF"> F  </i>
   <i name="ENCUT4O">     -1.00000000</i>
   <i type="int" name="EXXOEP">     0</i>
   <i type="int" name="FOURORBIT">     0</i>
   <i name="AEXX">      0.00000000</i>
   <i name="HFALPHA">      0.00000000</i>
   <i name="MCALPHA">      0.00000000</i>
   <i name="ALDAX">      1.00000000</i>
   <i name="AGGAX">      1.00000000</i>
   <i name="ALDAC">      1.00000000</i>
   <i name="AGGAC">      1.00000000</i>
   <i type="int" name="NKREDX">     1</i>
   <i type="int" name="NKREDY">     1</i>
   <i type="int" name="NKREDZ">     1</i>
   <i type="logical" name="SHIFTRED"> F  </i>
   <i type="logical" name="ODDONLY"> F  </i>
   <i type="logical" name="EVENONLY"> F  </i>
   <i type="int" name="LMAXFOCK">     0</i>
   <i type="int" name="NMAXFOCKAE">     0</i>
   <i type="logical" name="LFOCKAEDFT"> F  </i>
   <i name="HFSCREEN">      0.00000000</i>
   <i name="HFSCREENC">      0.00000000</i>
   <i type="int" name="NBANDSGWLOW">     0</i>
  </separator>
  <separator name="vdW DFT" >
   <i type="logical" name="LUSE_VDW"> F  </i>
   <i name="Zab_VDW">     -0.84910000</i>
   <i name="PARAM1">      0.12340000</i>
   <i name="PARAM2">      1.00000000</i>
   <i name="PARAM3">      0.00000000</i>
  </separator>
  <separator name="model GW" >
   <i type="int" name="MODEL_GW">     0</i>
   <i name="MODEL_EPS0">      8.16195161</i>
   <i name="MODEL_ALPHA">      1.00000000</i>
  </separator>
  <separator name="linear response parameters" >
   <i type="logical" name="LEPSILON"> F  </i>
   <i type="logical" name="LRPA"> F  </i>
   <i type="logical" name="LNABLA"> F  </i>
   <i type="logical" name="LVEL"> F  </i>
   <i type="int" name="KINTER">     0</i>
   <i name="CSHIFT">      0.10000000</i>
   <i name="OMEGAMAX">     -1.00000000</i>
   <i name="DEG_THRESHOLD">      0.00200000</i>
  </separator>
  <separator name="orbital magnetization" >
   <i type="logical" name="NUCIND"> F  </i>
   <v name="MAGPOS">      0.00000000      0.00000000      0.00000000</v>
   <i type="logical" name="LNICSALL"> T  </i>
   <i type="logical" name="ORBITALMAG"> F  </i>
   <i type="logical" name="LMAGBLOCH"> F  </i>
   <i type="logical" name="LCHIMAG"> F  </i>
   <i type="logical" name="LGAUGE"> T  </i>
   <i type="int" name="MAGATOM">     0</i>
   <v name="MAGDIPOL">      0.00000000      0.00000000      0.00000000</v>
   <v name="AVECCONST">      0.00000000      0.00000000      0.00000000</v>
  </separator>
  <separator name="response functions" >
   <i type="logical" name="LADDER"> F  </i>
   <i type="logical" name="LFXC"> F  </i>
   <i type="logical" name="LHARTREE"> T  </i>
   <i type="int" name="IBSE">     0</i>
   <v type="int" name="KPOINT">    -1     0     0     0</v>
   <i type="logical" name="LTCTE"> F  </i>
   <i type="logical" name="LTETE"> F  </i>
   <i type="logical" name="LTRIPLET"> F  </i>
   <i type="logical" name="LFXCEPS"> F  </i>
   <i type="logical" name="LFXHEG"> F  </i>
   <i type="int" name="NATURALO">     0</i>
   <i type="logical" name="L2ORDER"> F  </i>
   <i type="logical" name="LUSEW"> F  </i>
   <i name="ENCUTGW">     -2.00000000</i>
   <i name="ENCUTGWSOFT">     -2.00000000</i>
   <i name="ENCUTLF">     -1.00000000</i>
   <i type="int" name="LMAXMP2">    -1</i>
   <i name="SCISSOR">      0.00000000</i>
   <i type="int" name="NOMEGA">     0</i>
   <i type="int" name="NOMEGAR">     0</i>
   <i type="int" name="NBANDSGW">    -1</i>
   <i type="int" name="NBANDSO">    -1</i>
   <i type="int" name="NBANDSV">    -1</i>
   <i type="int" name="NELM">     1</i>
   <i type="int" name="NELMHF">     1</i>
   <i type="int" name="DIM">     3</i>
   <i type="int" name="ANTIRES">     0</i>
   <i name="OMEGAMAX">    -30.00000000</i>
   <i name="OMEGAMIN">    -30.00000000</i>
   <i name="OMEGATL">   -200.00000000</i>
   <i type="int" name="OMEGAGRID">     0</i>
   <i name="CSHIFT">     -0.10000000</i>
   <i type="logical" name="SELFENERGY"> F  </i>
   <i type="logical" name="LSPECTRAL"> F  </i>
   <i type="logical" name="LSPECTRALGW"> F  </i>
   <i type="logical" name="LSINGLES"> F  </i>
   <i type="logical" name="LFERMIGW"> F  </i>
   <i type="logical" name="ODDONLYGW"> F  </i>
   <i type="logical" name="EVENONLYGW"> F  </i>
   <i type="int" name="NKREDLFX">     1</i>
   <i type="int" name="NKREDLFY">     1</i>
   <i type="int" name="NKREDLFZ">     1</i>
   <i type="int" name="MAXMEM">  1800</i>
   <i type="int" name="TELESCOPE">     0</i>
   <i type="int" name="TAUPAR">     1</i>
   <i type="int" name="OMEGAPAR">    -1</i>
   <i name="LAMBDA">      1.00000000</i>
  </separator>
  <separator name="External order field" >
   <i name="OFIELD_KAPPA">      0.00000000</i>
   <v name="OFIELD_K">      0.00000000      0.00000000      0.00000000</v>
   <i name="OFIELD_Q6_NEAR">      0.00000000</i>
   <i name="OFIELD_Q6_FAR">      0.00000000</i>
   <i name="OFIELD_A">      0.00000000</i>
  </separator>
 </parameters>
 <atominfo>
  <atoms>      64 </atoms>
  <types>       1 </types>
  <array name="atoms" >
   <dimension dim="1">ion</dimension>
   <field type="string">element</field>
   <field type="int">atomtype</field>
   <set>
    <rc><c>Ni</c><c>   1</c></rc>
    <rc><c>Ni</c><c>   1</c></rc>
    <rc><c>Ni</c><c>   1</c></rc>
    <rc><c>Ni</c><c>   1</c></rc>
    <rc><c>Ni</c><c>   1</c></rc>
    <rc><c>Ni</c><c>   1</c></rc>
    <rc><c>Ni</c><c>   1</c></rc>
    <rc><c>Ni</c><c>   1</c></rc>
    <rc><c>Ni</c><c>   1</c></rc>
    <rc><c>Ni</c><c>   1</c></rc>
    <rc><c>Ni</c><c>   1</c></rc>
    <rc><c>Ni</c><c>   1</c></rc>
    <rc><c>Ni</c><c>   1</c></rc>
    <rc><c>Ni</c><c>   1</c></rc>
    <rc><c>Ni</c><c>   1</c></rc>
    <rc><c>Ni</c><c>   1</c></rc>
    <rc><c>Ni</c><c>   1</c></rc>
    <rc><c>Ni</c><c>   1</c></rc>
    <rc><c>Ni</c><c>   1</c></rc>
    <rc><c>Ni</c><c>   1</c></rc>
    <rc><c>Ni</c><c>   1</c></rc>
    <rc><c>Ni</c><c>   1</c></rc>
    <rc><c>Ni</c><c>   1</c></rc>
    <rc><c>Ni</c><c>   1</c></rc>
    <rc><c>Ni</c><c>   1</c></rc>
    <rc><c>Ni</c><c>   1</c></rc>
    <rc><c>Ni</c><c>   1</c></rc>
    <rc><c>Ni</c><c>   1</c></rc>
    <rc><c>Ni</c><c>   1</c></rc>
    <rc><c>Ni</c><c>   1</c></rc>
    <rc><c>Ni</c><c>   1</c></rc>
    <rc><c>Ni</c><c>   1</c></rc>
    <rc><c>Ni</c><c>   1</c></rc>
    <rc><c>Ni</c><c>   1</c></rc>
    <rc><c>Ni</c><c>   1</c></rc>
    <rc><c>Ni</c><c>   1</c></rc>
    <rc><c>Ni</c><c>   1</c></rc>
    <rc><c>Ni</c><c>   1</c></rc>
    <rc><c>Ni</c><c>   1</c></rc>
    <rc><c>Ni</c><c>   1</c></rc>
    <rc><c>Ni</c><c>   1</c></rc>
    <rc><c>Ni</c><c>   1</c></rc>
    <rc><c>Ni</c><c>   1</c></rc>
    <rc><c>Ni</c><c>   1</c></rc>
    <rc><c>Ni</c><c>   1</c></rc>
    <rc><c>Ni</c><c>   1</c></rc>
    <rc><c>Ni</c><c>   1</c></rc>
    <rc><c>Ni</c><c>   1</c></rc>
    <rc><c>Ni</c><c>   1</c></rc>
    <rc><c>Ni</c><c>   1</c></rc>
    <rc><c>Ni</c><c>   1</c></rc>
    <rc><c>Ni</c><c>   1</c></rc>
    <rc><c>Ni</c><c>   1</c></rc>
    <rc><c>Ni</c><c>   1</c></rc>
    <rc><c>Ni</c><c>   1</c></rc>
    <rc><c>Ni</c><c>   1</c></rc>
    <rc><c>Ni</c><c>   1</c></rc>
    <rc><c>Ni</c><c>   1</c></rc>
    <rc><c>Ni</c><c>   1</c></rc>
    <rc><c>Ni</c><c>   1</c></rc>
    <rc><c>Ni</c><c>   1</c></rc>
    <rc><c>Ni</c><c>   1</c></rc>
    <rc><c>Ni</c><c>   1</c></rc>
    <rc><c>Ni</c><c>   1</c></rc>
   </set>
  </array>
  <array name="atomtypes" >
   <dimension dim="1">type</dimension>
   <field type="int">atomspertype</field>
   <field type="string">element</field>
   <field>mass</field>
   <field>valence</field>
   <field type="string">pseudopotential</field>
   <set>
    <rc><c>  64</c><c>Ni</c><c>     58.69000000</c><c>     16.00000000</c><c> PAW_PBE Ni_pv 06Sep2000                </c></rc>
   </set>
  </array>
 </atominfo>
 <structure name="initialpos" >
  <crystal>
   <varray name="basis" >
    <v>       0.00000000       7.57875000       7.57875000 </v>
    <v>       7.57875000       0.00000000       7.57875000 </v>
    <v>       7.57875000       7.57875000       0.00000000 </v>
   </varray>
   <i name="volume">    870.60817206 </i>
   <varray name="rec_basis" >
    <v>      -0.06597394       0.06597394       0.06597394 </v>
    <v>       0.06597394      -0.06597394       0.06597394 </v>
    <v>       0.06597394       0.06597394      -0.06597394 </v>
   </varray>
  </crystal>
  <varray name="positions" >
   <v>       0.00000000       0.00000000       0.00000000 </v>
   <v>       0.00000000       0.00000000       0.25000000 </v>
   <v>       0.00000000       0.00000000       0.50000000 </v>
   <v>       0.00000000       0.00000000       0.75000000 </v>
   <v>       0.00000000       0.25000000       0.00000000 </v>
   <v>       0.00000000       0.25000000       0.25000000 </v>
   <v>       0.00000000       0.25000000       0.50000000 </v>
   <v>       0.00000000       0.25000000       0.75000000 </v>
   <v>       0.00000000       0.50000000       0.00000000 </v>
   <v>       0.00000000       0.50000000       0.25000000 </v>
   <v>       0.00000000       0.50000000       0.50000000 </v>
   <v>       0.00000000       0.50000000       0.75000000 </v>
   <v>       0.00000000       0.75000000       0.00000000 </v>
   <v>       0.00000000       0.75000000       0.25000000 </v>
   <v>       0.00000000       0.75000000       0.50000000 </v>
   <v>       0.00000000       0.75000000       0.75000000 </v>
   <v>       0.25000000       0.00000000       0.00000000 </v>
   <v>       0.25000000       0.00000000       0.25000000 </v>
   <v>       0.25000000       0.00000000       0.50000000 </v>
   <v>       0.25000000       0.00000000       0.75000000 </v>
   <v>       0.25000000       0.25000000       0.00000000 </v>
   <v>       0.25000000       0.25000000       0.25000000 </v>
   <v>       0.25000000       0.25000000       0.50000000 </v>
   <v>       0.25000000       0.25000000       0.75000000 </v>
   <v>       0.25000000       0.50000000       0.00000000 </v>
   <v>       0.25000000       0.50000000       0.25000000 </v>
   <v>       0.25000000       0.50000000       0.50000000 </v>
   <v>       0.25000000       0.50000000       0.75000000 </v>
   <v>       0.25000000       0.75000000       0.00000000 </v>
   <v>       0.25000000       0.75000000       0.25000000 </v>
   <v>       0.25000000       0.75000000       0.50000000 </v>
   <v>       0.25000000       0.75000000       0.75000000 </v>
   <v>       0.50000000       0.00000000       0.00000000 </v>
   <v>       0.50000000       0.00000000       0.25000000 </v>
   <v>       0.50000000       0.00000000       0.50000000 </v>
   <v>       0.50000000       0.00000000       0.75000000 </v>
   <v>       0.50000000       0.25000000       0.00000000 </v>
   <v>       0.50000000       0.25000000       0.25000000 </v>
   <v>       0.50000000       0.25000000       0.50000000 </v>
   <v>       0.50000000       0.25000000       0.75000000 </v>
   <v>       0.50000000       0.50000000       0.00000000 </v>
   <v>       0.50000000       0.50000000       0.25000000 </v>
   <v>       0.50000000       0.50000000       0.50000000 </v>
   <v>       0.50000000       0.50000000       0.75000000 </v>
   <v>       0.50000000       0.75000000       0.00000000 </v>
   <v>       0.50000000       0.75000000       0.25000000 </v>
   <v>       0.50000000       0.75000000       0.50000000 </v>
   <v>       0.50000000       0.75000000       0.75000000 </v>
   <v>       0.75000000       0.00000000       0.00000000 </v>
   <v>       0.75000000       0.00000000       0.25000000 </v>
   <v>       0.75000000       0.00000000       0.50000000 </v>
   <v>       0.75000000       0.00000000       0.75000000 </v>
   <v>       0.75000000       0.25000000       0.00000000 </v>
   <v>       0.75000000       0.25000000       0.25000000 </v>
   <v>       0.75000000       0.25000000       0.50000000 </v>
   <v>       0.75000000       0.25000000       0.75000000 </v>
   <v>       0.75000000       0.50000000       0.00000000 </v>
   <v>       0.75000000       0.50000000       0.25000000 </v>
   <v>       0.75000000       0.50000000       0.50000000 </v>
   <v>       0.75000000       0.50000000       0.75000000 </v>
   <v>       0.75000000       0.75000000       0.00000000 </v>
   <v>       0.75000000       0.75000000       0.25000000 </v>
   <v>       0.75000000       0.75000000       0.50000000 </v>
   <v>       0.75000000       0.75000000       0.75000000 </v>
  </varray>
 </structure>
 <calculation>
  <scstep>
   <time name="dav">  226.84  226.66</time>
   <time name="total">  227.65  227.47</time>
   <energy>
    <i name="alphaZ">   7925.72117195 </i>
    <i name="ewald">-142726.55438451 </i>
    <i name="hartreedc"> -68446.41764855 </i>
    <i name="XCdc">   5673.78292776 </i>
    <i name="pawpsdc"> 172361.15642774 </i>
    <i name="pawaedc">-181272.45834873 </i>
    <i name="eentropy">      0.01075230 </i>
    <i name="bandstr">  -2456.84400064 </i>
    <i name="atom"> 224016.65216645 </i>
    <i name="e_fr_energy">  15075.04906377 </i>
    <i name="e_wo_entrp">  15075.03831147 </i>
    <i name="e_0_energy">  15075.04547967 </i>
   </energy>
  </scstep>
  <scstep>
   <time name="dav">  208.76  208.59</time>
   <time name="total">  208.77  208.60</time>
   <energy>
    <i name="e_fr_energy">    920.63900717 </i>
    <i name="e_wo_entrp">    920.66520860 </i>
    <i name="e_0_energy">    920.64774098 </i>
   </energy>
  </scstep>
  <scstep>
   <time name="dav">  212.12  211.94</time>
   <time name="total">  212.12  211.95</time>
   <energy>
    <i name="e_fr_energy">   -336.96909077 </i>
    <i name="e_wo_entrp">   -337.09909874 </i>
    <i name="e_0_energy">   -337.01242676 </i>
   </energy>
  </scstep>
  <scstep>
   <time name="dav">  220.22  220.04</time>
   <time name="total">  220.22  220.04</time>
   <energy>
    <i name="e_fr_energy">   -411.79219253 </i>
    <i name="e_wo_entrp">   -411.93375990 </i>
    <i name="e_0_energy">   -411.83938166 </i>
   </energy>
  </scstep>
  <scstep>
   <time name="dav">  219.60  219.43</time>
   <time name="total">  234.86  234.67</time>
   <energy>
    <i name="e_fr_energy">   -413.13377696 </i>
    <i name="e_wo_entrp">   -413.27603420 </i>
    <i name="e_0_energy">   -413.18119604 </i>
   </energy>
  </scstep>
  <scstep>
   <time name="dav">  216.06  215.88</time>
   <time name="total">  231.10  230.91</time>
   <energy>
    <i name="e_fr_energy">   -399.95321447 </i>
    <i name="e_wo_entrp">   -399.40307218 </i>
    <i name="e_0_energy">   -399.76983370 </i>
   </energy>
  </scstep>
  <scstep>
   <time name="dav">  215.68  215.50</time>
   <time name="total">  231.03  230.84</time>
   <energy>
    <i name="e_fr_energy">   -353.68237426 </i>
    <i name="e_wo_entrp">   -353.52096709 </i>
    <i name="e_0_energy">   -353.62857187 </i>
   </energy>
  </scstep>
  <scstep>
   <time name="dav">  217.74  218.21</time>
   <time name="total">  233.12  233.58</time>
   <energy>
    <i name="e_fr_energy">   -353.93462660 </i>
    <i name="e_wo_entrp">   -353.79098581 </i>
    <i name="e_0_energy">   -353.88674634 </i>
   </energy>
  </scstep>
  <scstep>
   <time name="dav">  221.83  222.08</time>
   <time name="total">  237.33  237.56</time>
   <energy>
    <i name="e_fr_energy">   -353.85255576 </i>
    <i name="e_wo_entrp">   -353.70666420 </i>
    <i name="e_0_energy">   -353.80392524 </i>
   </energy>
  </scstep>
  <scstep>
   <time name="dav">  230.66  230.47</time>
   <time name="total">  246.04  245.85</time>
   <energy>
    <i name="e_fr_energy">   -353.85867255 </i>
    <i name="e_wo_entrp">   -353.71400323 </i>
    <i name="e_0_energy">   -353.81044945 </i>
   </energy>
  </scstep>
  <scstep>
   <time name="dav">  220.33  220.15</time>
   <time name="total">  235.73  235.54</time>
   <energy>
    <i name="e_fr_energy">   -353.86139772 </i>
    <i name="e_wo_entrp">   -353.71748601 </i>
    <i name="e_0_energy">   -353.81342715 </i>
   </energy>
  </scstep>
  <scstep>
   <time name="dav">  235.07  234.88</time>
   <time name="total">  250.51  250.31</time>
   <energy>
    <i name="e_fr_energy">   -353.86161267 </i>
    <i name="e_wo_entrp">   -353.71650510 </i>
    <i name="e_0_energy">   -353.81324348 </i>
   </energy>
  </scstep>
  <scstep>
   <time name="dav">  225.43  225.25</time>
   <time name="total">  240.83  240.63</time>
   <energy>
    <i name="e_fr_energy">   -353.86160583 </i>
    <i name="e_wo_entrp">   -353.71629144 </i>
    <i name="e_0_energy">   -353.81316770 </i>
   </energy>
  </scstep>
  <scstep>
   <time name="dav">  171.75  171.61</time>
   <time name="total">  186.93  186.78</time>
   <energy>
    <i name="e_fr_energy">   -353.86159293 </i>
    <i name="e_wo_entrp">   -353.71633157 </i>
    <i name="e_0_energy">   -353.81317247 </i>
   </energy>
  </scstep>
  <scstep>
   <time name="dav">  175.54  175.40</time>
   <time name="total">  190.77  190.61</time>
   <energy>
    <i name="e_fr_energy">   -353.86158408 </i>
    <i name="e_wo_entrp">   -353.71638871 </i>
    <i name="e_0_energy">   -353.81318562 </i>
   </energy>
  </scstep>
  <scstep>
   <time name="dav">  134.74  135.07</time>
   <time name="total">  135.54  135.86</time>
   <energy>
    <i name="alphaZ">   7925.72117195 </i>
    <i name="ewald">-142726.55438451 </i>
    <i name="hartreedc"> -66215.15819279 </i>
    <i name="XCdc">   5592.87570387 </i>
    <i name="pawpsdc"> 169987.79568065 </i>
    <i name="pawaedc">-179013.67516635 </i>
    <i name="eentropy">     -0.14518927 </i>
    <i name="bandstr"> -19921.37337416 </i>
    <i name="atom"> 224016.65216645 </i>
    <i name="e_fr_energy">   -353.86158416 </i>
    <i name="e_wo_entrp">   -353.71639489 </i>
    <i name="e_0_energy">   -353.81318774 </i>
   </energy>
  </scstep>
  <structure>
   <crystal>
    <varray name="basis" >
     <v>       0.00000000       7.57875000       7.57875000 </v>
     <v>       7.57875000       0.00000000       7.57875000 </v>
     <v>       7.57875000       7.57875000       0.00000000 </v>
    </varray>
    <i name="volume">    870.60817206 </i>
    <varray name="rec_basis" >
     <v>      -0.06597394       0.06597394       0.06597394 </v>
     <v>       0.06597394      -0.06597394       0.06597394 </v>
     <v>       0.06597394       0.06597394      -0.06597394 </v>
    </varray>
   </crystal>
   <varray name="positions" >
    <v>       0.00000000       0.00000000       0.00000000 </v>
    <v>       0.00000000       0.00000000       0.25000000 </v>
    <v>       0.00000000       0.00000000       0.50000000 </v>
    <v>       0.00000000       0.00000000       0.75000000 </v>
    <v>       0.00000000       0.25000000       0.00000000 </v>
    <v>       0.00000000       0.25000000       0.25000000 </v>
    <v>       0.00000000       0.25000000       0.50000000 </v>
    <v>       0.00000000       0.25000000       0.75000000 </v>
    <v>       0.00000000       0.50000000       0.00000000 </v>
    <v>       0.00000000       0.50000000       0.25000000 </v>
    <v>       0.00000000       0.50000000       0.50000000 </v>
    <v>       0.00000000       0.50000000       0.75000000 </v>
    <v>       0.00000000       0.75000000       0.00000000 </v>
    <v>       0.00000000       0.75000000       0.25000000 </v>
    <v>       0.00000000       0.75000000       0.50000000 </v>
    <v>       0.00000000       0.75000000       0.75000000 </v>
    <v>       0.25000000       0.00000000       0.00000000 </v>
    <v>       0.25000000       0.00000000       0.25000000 </v>
    <v>       0.25000000       0.00000000       0.50000000 </v>
    <v>       0.25000000       0.00000000       0.75000000 </v>
    <v>       0.25000000       0.25000000       0.00000000 </v>
    <v>       0.25000000       0.25000000       0.25000000 </v>
    <v>       0.25000000       0.25000000       0.50000000 </v>
    <v>       0.25000000       0.25000000       0.75000000 </v>
    <v>       0.25000000       0.50000000       0.00000000 </v>
    <v>       0.25000000       0.50000000       0.25000000 </v>
    <v>       0.25000000       0.50000000       0.50000000 </v>
    <v>       0.25000000       0.50000000       0.75000000 </v>
    <v>       0.25000000       0.75000000       0.00000000 </v>
    <v>       0.25000000       0.75000000       0.25000000 </v>
    <v>       0.25000000       0.75000000       0.50000000 </v>
    <v>       0.25000000       0.75000000       0.75000000 </v>
    <v>       0.50000000       0.00000000       0.00000000 </v>
    <v>       0.50000000       0.00000000       0.25000000 </v>
    <v>       0.50000000       0.00000000       0.50000000 </v>
    <v>       0.50000000       0.00000000       0.75000000 </v>
    <v>       0.50000000       0.25000000       0.00000000 </v>
    <v>       0.50000000       0.25000000       0.25000000 </v>
    <v>       0.50000000       0.25000000       0.50000000 </v>
    <v>       0.50000000       0.25000000       0.75000000 </v>
    <v>       0.50000000       0.50000000       0.00000000 </v>
    <v>       0.50000000       0.50000000       0.25000000 </v>
    <v>       0.50000000       0.50000000       0.50000000 </v>
    <v>       0.50000000       0.50000000       0.75000000 </v>
    <v>       0.50000000       0.75000000       0.00000000 </v>
    <v>       0.50000000       0.75000000       0.25000000 </v>
    <v>       0.50000000       0.75000000       0.50000000 </v>
    <v>       0.50000000       0.75000000       0.75000000 </v>
    <v>       0.75000000       0.00000000       0.00000000 </v>
    <v>       0.75000000       0.00000000       0.25000000 </v>
    <v>       0.75000000       0.00000000       0.50000000 </v>
    <v>       0.75000000       0.00000000       0.75000000 </v>
    <v>       0.75000000       0.25000000       0.00000000 </v>
    <v>       0.75000000       0.25000000       0.25000000 </v>
    <v>       0.75000000       0.25000000       0.50000000 </v>
    <v>       0.75000000       0.25000000       0.75000000 </v>
    <v>       0.75000000       0.50000000       0.00000000 </v>
    <v>       0.75000000       0.50000000       0.25000000 </v>
    <v>       0.75000000       0.50000000       0.50000000 </v>
    <v>       0.75000000       0.50000000       0.75000000 </v>
    <v>       0.75000000       0.75000000       0.00000000 </v>
    <v>       0.75000000       0.75000000       0.25000000 </v>
    <v>       0.75000000       0.75000000       0.50000000 </v>
    <v>       0.75000000       0.75000000       0.75000000 </v>
   </varray>
  </structure>
  <varray name="forces" >
   <v>       0.00000000       0.00000000       0.00000000 </v>
   <v>       0.00000000       0.00000000      -0.00000000 </v>
   <v>      -0.00000000      -0.00000000      -0.00000000 </v>
   <v>       0.00000000       0.00000000       0.00000000 </v>
   <v>       0.00000000      -0.00000000       0.00000000 </v>
   <v>       0.00000000      -0.00000000       0.00000000 </v>
   <v>      -0.00000000      -0.00000000      -0.00000000 </v>
   <v>       0.00000000      -0.00000000      -0.00000000 </v>
   <v>       0.00000000       0.00000000      -0.00000000 </v>
   <v>       0.00000000       0.00000000       0.00000000 </v>
   <v>       0.00000000      -0.00000000      -0.00000000 </v>
   <v>       0.00000000      -0.00000000      -0.00000000 </v>
   <v>       0.00000000      -0.00000000      -0.00000000 </v>
   <v>       0.00000000       0.00000000      -0.00000000 </v>
   <v>      -0.00000000      -0.00000000      -0.00000000 </v>
   <v>      -0.00000000       0.00000000       0.00000000 </v>
   <v>       0.00000000       0.00000000       0.00000000 </v>
   <v>       0.00000000       0.00000000      -0.00000000 </v>
   <v>      -0.00000000      -0.00000000      -0.00000000 </v>
   <v>       0.00000000       0.00000000       0.00000000 </v>
   <v>      -0.00000000      -0.00000000       0.00000000 </v>
   <v>       0.00000000       0.00000000       0.00000000 </v>
   <v>      -0.00000000       0.00000000      -0.00000000 </v>
   <v>      -0.00000000      -0.00000000       0.00000000 </v>
   <v>      -0.00000000       0.00000000      -0.00000000 </v>
   <v>       0.00000000       0.00000000       0.00000000 </v>
   <v>       0.00000000      -0.00000000      -0.00000000 </v>
   <v>      -0.00000000       0.00000000       0.00000000 </v>
   <v>      -0.00000000      -0.00000000      -0.00000000 </v>
   <v>      -0.00000000       0.00000000       0.00000000 </v>
   <v>      -0.00000000      -0.00000000       0.00000000 </v>
   <v>       0.00000000       0.00000000       0.00000000 </v>
   <v>      -0.00000000      -0.00000000       0.00000000 </v>
   <v>       0.00000000       0.00000000      -0.00000000 </v>
   <v>      -0.00000000      -0.00000000      -0.00000000 </v>
   <v>      -0.00000000       0.00000000      -0.00000000 </v>
   <v>      -0.00000000      -0.00000000      -0.00000000 </v>
   <v>       0.00000000       0.00000000       0.00000000 </v>
   <v>      -0.00000000      -0.00000000      -0.00000000 </v>
   <v>      -0.00000000      -0.00000000      -0.00000000 </v>
   <v>      -0.00000000       0.00000000      -0.00000000 </v>
   <v>       0.00000000       0.00000000       0.00000000 </v>
   <v>      -0.00000000      -0.00000000      -0.00000000 </v>
   <v>      -0.00000000       0.00000000      -0.00000000 </v>
   <v>      -0.00000000      -0.00000000      -0.00000000 </v>
   <v>       0.00000000       0.00000000       0.00000000 </v>
   <v>       0.00000000      -0.00000000       0.00000000 </v>
   <v>       0.00000000      -0.00000000       0.00000000 </v>
   <v>       0.00000000      -0.00000000       0.00000000 </v>
   <v>      -0.00000000       0.00000000      -0.00000000 </v>
   <v>      -0.00000000      -0.00000000       0.00000000 </v>
   <v>      -0.00000000       0.00000000       0.00000000 </v>
   <v>      -0.00000000       0.00000000      -0.00000000 </v>
   <v>       0.00000000       0.00000000       0.00000000 </v>
   <v>      -0.00000000       0.00000000      -0.00000000 </v>
   <v>      -0.00000000      -0.00000000       0.00000000 </v>
   <v>       0.00000000       0.00000000      -0.00000000 </v>
   <v>       0.00000000       0.00000000       0.00000000 </v>
   <v>      -0.00000000       0.00000000       0.00000000 </v>
   <v>       0.00000000      -0.00000000       0.00000000 </v>
   <v>       0.00000000      -0.00000000      -0.00000000 </v>
   <v>       0.00000000       0.00000000       0.00000000 </v>
   <v>      -0.00000000      -0.00000000       0.00000000 </v>
   <v>      -0.00000000      -0.00000000       0.00000000 </v>
  </varray>
  <varray name="stress" >
   <v>    -258.90493296      -0.00000000      -0.00000000 </v>
   <v>      -0.00000000    -258.90493296      -0.00000000 </v>
   <v>       0.00000000      -0.00000000    -258.90493296 </v>
  </varray>
  <energy>
   <i name="e_fr_energy">   -353.86158416 </i>
   <i name="e_wo_entrp">   -353.81318774 </i>
   <i name="e_0_energy">     -0.14518927 </i>
  </energy>
  <kpoints>
   <generation param="Gamma">
    <v type="int" name="divisions">       3        3        3 </v>
    <v name="usershift">      0.00000000       0.00000000       0.00000000 </v>
    <v name="genvec1">      0.33333333       0.00000000       0.00000000 </v>
    <v name="genvec2">      0.00000000       0.33333333       0.00000000 </v>
    <v name="genvec3">      0.00000000       0.00000000       0.33333333 </v>
    <v name="shift">      0.00000000       0.00000000       0.00000000 </v>
   </generation>
   <varray name="kpointlist" >
    <v>       0.00000000       0.00000000       0.00000000 </v>
    <v>       0.33333333       0.00000000       0.00000000 </v>
    <v>       0.33333333       0.33333333       0.00000000 </v>
    <v>      -0.33333333       0.33333333       0.00000000 </v>
    <v>       0.00000000       0.33333333       0.33333333 </v>
    <v>      -0.33333333       0.33333333       0.33333333 </v>
   </varray>
   <varray name="weights" >
    <v>       0.03703704 </v>
    <v>       0.29629630 </v>
    <v>       0.14814815 </v>
    <v>       0.29629630 </v>
    <v>       0.07407407 </v>
    <v>       0.14814815 </v>
   </varray>
  </kpoints>
  <time name="totalsc"> 3802.98 3801.61</time>
 </calculation>
 <calculation>
  <scstep>
   <time name="dav">  406.89  406.57</time>
   <time name="total">  428.17  427.83</time>
   <energy>
    <i name="alphaZ">   7925.72117195 </i>
    <i name="ewald">-142726.42868067 </i>
    <i name="hartreedc"> -66215.27253819 </i>
    <i name="XCdc">   5592.87596805 </i>
    <i name="pawpsdc"> 169987.59376812 </i>
    <i name="pawaedc">-179013.47850600 </i>
    <i name="eentropy">     -0.14516872 </i>
    <i name="bandstr"> -19921.28221711 </i>
    <i name="atom"> 224016.65216645 </i>
    <i name="e_fr_energy">   -353.76403613 </i>
    <i name="e_wo_entrp">   -353.61886741 </i>
    <i name="e_0_energy">   -353.71564656 </i>
   </energy>
  </scstep>
  <scstep>
   <time name="dav">  331.49  331.23</time>
   <time name="total">  352.36  352.08</time>
   <energy>
    <i name="e_fr_energy">   -353.86157432 </i>
    <i name="e_wo_entrp">   -353.71648459 </i>
    <i name="e_0_energy">   -353.81321108 </i>
   </energy>
  </scstep>
  <scstep>
   <time name="dav">  398.97  398.65</time>
   <time name="total">  420.31  419.96</time>
   <energy>
    <i name="e_fr_energy">   -353.86533568 </i>
    <i name="e_wo_entrp">   -353.72020681 </i>
    <i name="e_0_energy">   -353.81695939 </i>
   </energy>
  </scstep>
  <scstep>
   <time name="dav">  370.20  370.28</time>
   <time name="total">  391.12  391.18</time>
   <energy>
    <i name="e_fr_energy">   -353.86373741 </i>
    <i name="e_wo_entrp">   -353.71862148 </i>
    <i name="e_0_energy">   -353.81536543 </i>
   </energy>
  </scstep>
  <scstep>
   <time name="dav">  346.96  346.75</time>
   <time name="total">  367.84  367.61</time>
   <energy>
    <i name="e_fr_energy">   -353.86140850 </i>
    <i name="e_wo_entrp">   -353.71622433 </i>
    <i name="e_0_energy">   -353.81301378 </i>
   </energy>
  </scstep>
  <scstep>
   <time name="dav">  404.44  404.10</time>
   <time name="total">  425.88  425.53</time>
   <energy>
    <i name="e_fr_energy">   -353.86139963 </i>
    <i name="e_wo_entrp">   -353.71621525 </i>
    <i name="e_0_energy">   -353.81300483 </i>
   </energy>
  </scstep>
  <scstep>
   <time name="dav">  354.42  354.13</time>
   <time name="total">  375.75  375.45</time>
   <energy>
    <i name="e_fr_energy">   -353.86134829 </i>
    <i name="e_wo_entrp">   -353.71616328 </i>
    <i name="e_0_energy">   -353.81295329 </i>
   </energy>
  </scstep>
  <scstep>
   <time name="dav">  351.71  351.42</time>
   <time name="total">  372.68  372.38</time>
   <energy>
    <i name="e_fr_energy">   -353.86132315 </i>
    <i name="e_wo_entrp">   -353.71613809 </i>
    <i name="e_0_energy">   -353.81292813 </i>
   </energy>
  </scstep>
  <scstep>
   <time name="dav">  352.72  352.65</time>
   <time name="total">  373.60  373.52</time>
   <energy>
    <i name="e_fr_energy">   -353.86134879 </i>
    <i name="e_wo_entrp">   -353.71616956 </i>
    <i name="e_0_energy">   -353.81295571 </i>
   </energy>
  </scstep>
  <scstep>
   <time name="dav">  411.98  411.78</time>
   <time name="total">  432.93  432.71</time>
   <energy>
    <i name="e_fr_energy">   -353.86120396 </i>
    <i name="e_wo_entrp">   -353.71602722 </i>
    <i name="e_0_energy">   -353.81281171 </i>
   </energy>
  </scstep>
  <scstep>
   <time name="dav">  437.81  437.46</time>
   <time name="total">  458.79  458.42</time>
   <energy>
    <i name="e_fr_energy">   -353.86120840 </i>
    <i name="e_wo_entrp">   -353.71603109 </i>
    <i name="e_0_energy">   -353.81281596 </i>
   </energy>
  </scstep>
  <scstep>
   <time name="dav">  358.08  357.79</time>
   <time name="total">  379.25  378.94</time>
   <energy>
    <i name="e_fr_energy">   -353.86120002 </i>
    <i name="e_wo_entrp">   -353.71602077 </i>
    <i name="e_0_energy">   -353.81280693 </i>
   </energy>
  </scstep>
  <scstep>
   <time name="dav">  336.82  336.83</time>
   <time name="total">  358.02  358.02</time>
   <energy>
    <i name="e_fr_energy">   -353.86119837 </i>
    <i name="e_wo_entrp">   -353.71601968 </i>
    <i name="e_0_energy">   -353.81280548 </i>
   </energy>
  </scstep>
  <scstep>
   <time name="dav">  218.41  218.23</time>
   <time name="total">  219.21  219.04</time>
   <energy>
    <i name="alphaZ">   7925.72117195 </i>
    <i name="ewald">-142726.42868067 </i>
    <i name="hartreedc"> -66215.25801686 </i>
    <i name="XCdc">   5592.87521632 </i>
    <i name="pawpsdc"> 169987.40766838 </i>
    <i name="pawaedc">-179013.29456746 </i>
    <i name="eentropy">     -0.14517909 </i>
    <i name="bandstr"> -19921.39097806 </i>
    <i name="atom"> 224016.65216645 </i>
    <i name="e_fr_energy">   -353.86119904 </i>
    <i name="e_wo_entrp">   -353.71601995 </i>
    <i name="e_0_energy">   -353.81280601 </i>
   </energy>
  </scstep>
  <structure>
   <crystal>
    <varray name="basis" >
     <v>       0.00000000       7.57875000       7.57875000 </v>
     <v>       7.57875000       0.00000000       7.57875000 </v>
     <v>       7.57875000       7.57875000       0.00000000 </v>
    </varray>
    <i name="volume">    870.60817206 </i>
    <varray name="rec_basis" >
     <v>      -0.06597394       0.06597394       0.06597394 </v>
     <v>       0.06597394      -0.06597394       0.06597394 </v>
     <v>       0.06597394       0.06597394      -0.06597394 </v>
    </varray>
   </crystal>
   <varray name="positions" >
    <v>      -0.00098961       0.00098961       0.00098961 </v>
    <v>       0.00000000       0.00000000       0.25000000 </v>
    <v>       0.00000000       0.00000000       0.50000000 </v>
    <v>       0.00000000       0.00000000       0.75000000 </v>
    <v>       0.00000000       0.25000000       0.00000000 </v>
    <v>       0.00000000       0.25000000       0.25000000 </v>
    <v>       0.00000000       0.25000000       0.50000000 </v>
    <v>       0.00000000       0.25000000       0.75000000 </v>
    <v>       0.00000000       0.50000000       0.00000000 </v>
    <v>       0.00000000       0.50000000       0.25000000 </v>
    <v>       0.00000000       0.50000000       0.50000000 </v>
    <v>       0.00000000       0.50000000       0.75000000 </v>
    <v>       0.00000000       0.75000000       0.00000000 </v>
    <v>       0.00000000       0.75000000       0.25000000 </v>
    <v>       0.00000000       0.75000000       0.50000000 </v>
    <v>       0.00000000       0.75000000       0.75000000 </v>
    <v>       0.25000000       0.00000000       0.00000000 </v>
    <v>       0.25000000       0.00000000       0.25000000 </v>
    <v>       0.25000000       0.00000000       0.50000000 </v>
    <v>       0.25000000       0.00000000       0.75000000 </v>
    <v>       0.25000000       0.25000000       0.00000000 </v>
    <v>       0.25000000       0.25000000       0.25000000 </v>
    <v>       0.25000000       0.25000000       0.50000000 </v>
    <v>       0.25000000       0.25000000       0.75000000 </v>
    <v>       0.25000000       0.50000000       0.00000000 </v>
    <v>       0.25000000       0.50000000       0.25000000 </v>
    <v>       0.25000000       0.50000000       0.50000000 </v>
    <v>       0.25000000       0.50000000       0.75000000 </v>
    <v>       0.25000000       0.75000000       0.00000000 </v>
    <v>       0.25000000       0.75000000       0.25000000 </v>
    <v>       0.25000000       0.75000000       0.50000000 </v>
    <v>       0.25000000       0.75000000       0.75000000 </v>
    <v>       0.50000000       0.00000000       0.00000000 </v>
    <v>       0.50000000       0.00000000       0.25000000 </v>
    <v>       0.50000000       0.00000000       0.50000000 </v>
    <v>       0.50000000       0.00000000       0.75000000 </v>
    <v>       0.50000000       0.25000000       0.00000000 </v>
    <v>       0.50000000       0.25000000       0.25000000 </v>
    <v>       0.50000000       0.25000000       0.50000000 </v>
    <v>       0.50000000       0.25000000       0.75000000 </v>
    <v>       0.50000000       0.50000000       0.00000000 </v>
    <v>       0.50000000       0.50000000       0.25000000 </v>
    <v>       0.50000000       0.50000000       0.50000000 </v>
    <v>       0.50000000       0.50000000       0.75000000 </v>
    <v>       0.50000000       0.75000000       0.00000000 </v>
    <v>       0.50000000       0.75000000       0.25000000 </v>
    <v>       0.50000000       0.75000000       0.50000000 </v>
    <v>       0.50000000       0.75000000       0.75000000 </v>
    <v>       0.75000000       0.00000000       0.00000000 </v>
    <v>       0.75000000       0.00000000       0.25000000 </v>
    <v>       0.75000000       0.00000000       0.50000000 </v>
    <v>       0.75000000       0.00000000       0.75000000 </v>
    <v>       0.75000000       0.25000000       0.00000000 </v>
    <v>       0.75000000       0.25000000       0.25000000 </v>
    <v>       0.75000000       0.25000000       0.50000000 </v>
    <v>       0.75000000       0.25000000       0.75000000 </v>
    <v>       0.75000000       0.50000000       0.00000000 </v>
    <v>       0.75000000       0.50000000       0.25000000 </v>
    <v>       0.75000000       0.50000000       0.50000000 </v>
    <v>       0.75000000       0.50000000       0.75000000 </v>
    <v>       0.75000000       0.75000000       0.00000000 </v>
    <v>       0.75000000       0.75000000       0.25000000 </v>
    <v>       0.75000000       0.75000000       0.50000000 </v>
    <v>       0.75000000       0.75000000       0.75000000 </v>
   </varray>
  </structure>
  <varray name="forces" >
   <v>      -0.05203461      -0.00000000      -0.00000000 </v>
   <v>       0.00427556       0.00379027      -0.00000000 </v>
   <v>       0.00028221       0.00013860      -0.00000000 </v>
   <v>       0.00385299       0.00335236      -0.00000000 </v>
   <v>       0.00427556      -0.00000000       0.00379027 </v>
   <v>       0.00090436       0.00047205       0.00047205 </v>
   <v>       0.00033029       0.00044656      -0.00022555 </v>
   <v>       0.00110251      -0.00000444       0.00000444 </v>
   <v>       0.00028221      -0.00000000       0.00013860 </v>
   <v>       0.00033029      -0.00022555       0.00044656 </v>
   <v>       0.00012297      -0.00000000      -0.00000000 </v>
   <v>       0.00033443      -0.00021629       0.00050736 </v>
   <v>       0.00385299      -0.00000000       0.00335236 </v>
   <v>       0.00110251       0.00000444      -0.00000444 </v>
   <v>       0.00033443       0.00050736      -0.00021629 </v>
   <v>       0.00083541       0.00047331       0.00047331 </v>
   <v>       0.00110251       0.00000444       0.00000444 </v>
   <v>       0.00033443       0.00050736       0.00021629 </v>
   <v>       0.00083541       0.00047331      -0.00047331 </v>
   <v>       0.00385299      -0.00000000      -0.00335236 </v>
   <v>       0.00033443       0.00021629       0.00050736 </v>
   <v>       0.00024274      -0.00000000      -0.00000000 </v>
   <v>       0.00033029       0.00022555      -0.00044656 </v>
   <v>      -0.00045214      -0.00000000       0.00003412 </v>
   <v>       0.00083541      -0.00047331       0.00047331 </v>
   <v>       0.00033029      -0.00044656       0.00022555 </v>
   <v>      -0.00004089      -0.00000463      -0.00000463 </v>
   <v>       0.00004408      -0.00000000      -0.00009259 </v>
   <v>       0.00385299      -0.00335236      -0.00000000 </v>
   <v>      -0.00045214       0.00003412      -0.00000000 </v>
   <v>       0.00004408      -0.00009259      -0.00000000 </v>
   <v>       0.00140429      -0.00000000      -0.00000000 </v>
   <v>       0.00012297      -0.00000000      -0.00000000 </v>
   <v>       0.00033443      -0.00021629      -0.00050736 </v>
   <v>       0.00028221      -0.00000000      -0.00013860 </v>
   <v>       0.00033029      -0.00022555      -0.00044656 </v>
   <v>       0.00033443      -0.00050736      -0.00021629 </v>
   <v>       0.00090436      -0.00047205      -0.00047205 </v>
   <v>       0.00002361      -0.00000000       0.00007753 </v>
   <v>      -0.00004089       0.00000463      -0.00000463 </v>
   <v>       0.00028221      -0.00013860      -0.00000000 </v>
   <v>       0.00002361       0.00007753      -0.00000000 </v>
   <v>      -0.00014434      -0.00000000      -0.00000000 </v>
   <v>       0.00004408       0.00009259      -0.00000000 </v>
   <v>       0.00033029      -0.00044656      -0.00022555 </v>
   <v>      -0.00004089      -0.00000463       0.00000463 </v>
   <v>       0.00004408      -0.00000000       0.00009259 </v>
   <v>       0.00083541      -0.00047331      -0.00047331 </v>
   <v>       0.00110251      -0.00000444      -0.00000444 </v>
   <v>       0.00427556      -0.00000000      -0.00379027 </v>
   <v>       0.00090436       0.00047205      -0.00047205 </v>
   <v>       0.00033029       0.00044656       0.00022555 </v>
   <v>       0.00427556      -0.00379027      -0.00000000 </v>
   <v>       0.00141471      -0.00000000      -0.00000000 </v>
   <v>       0.00002361      -0.00007753      -0.00000000 </v>
   <v>      -0.00045214      -0.00003412      -0.00000000 </v>
   <v>       0.00090436      -0.00047205       0.00047205 </v>
   <v>       0.00002361      -0.00000000      -0.00007753 </v>
   <v>      -0.00004089       0.00000463       0.00000463 </v>
   <v>       0.00033443      -0.00050736       0.00021629 </v>
   <v>       0.00033029       0.00022555       0.00044656 </v>
   <v>      -0.00045214      -0.00000000      -0.00003412 </v>
   <v>       0.00033443       0.00021629      -0.00050736 </v>
   <v>       0.00024274      -0.00000000      -0.00000000 </v>
  </varray>
  <varray name="stress" >
   <v>    -258.82662452       0.00000000      -0.00000000 </v>
   <v>       0.00000000    -258.82730176       0.00000000 </v>
   <v>       0.00000000       0.00000000    -258.82730176 </v>
  </varray>
  <energy>
   <i name="e_fr_energy">   -353.86119904 </i>
   <i name="e_wo_entrp">   -353.81280601 </i>
   <i name="e_0_energy">     -0.14517909 </i>
  </energy>
  <kpoints>
   <generation param="Gamma">
    <v type="int" name="divisions">       3        3        3 </v>
    <v name="usershift">      0.00000000       0.00000000       0.00000000 </v>
    <v name="genvec1">      0.33333333       0.00000000       0.00000000 </v>
    <v name="genvec2">      0.00000000       0.33333333       0.00000000 </v>
    <v name="genvec3">      0.00000000       0.00000000       0.33333333 </v>
    <v name="shift">      0.00000000       0.00000000       0.00000000 </v>
   </generation>
   <varray name="kpointlist" >
    <v>       0.00000000       0.00000000       0.00000000 </v>
    <v>       0.33333333       0.00000000       0.00000000 </v>
    <v>       0.33333333       0.33333333       0.00000000 </v>
    <v>      -0.33333333       0.33333333       0.00000000 </v>
    <v>       0.00000000       0.33333333       0.33333333 </v>
    <v>      -0.33333333       0.33333333       0.33333333 </v>
   </varray>
   <varray name="weights" >
    <v>       0.03703704 </v>
    <v>       0.29629630 </v>
    <v>       0.14814815 </v>
    <v>       0.29629630 </v>
    <v>       0.07407407 </v>
    <v>       0.14814815 </v>
   </varray>
  </kpoints>
  <time name="totalsc"> 5750.53 5747.82</time>
 </calculation>
 <calculation>
  <scstep>
   <time name="dav">  412.77  412.43</time>
   <time name="total">  433.92  433.56</time>
   <energy>
    <i name="alphaZ">   7925.72117195 </i>
    <i name="ewald">-142726.42868068 </i>
    <i name="hartreedc"> -66215.29736159 </i>
    <i name="XCdc">   5592.87748057 </i>
    <i name="pawpsdc"> 169987.40607173 </i>
    <i name="pawaedc">-179013.29308825 </i>
    <i name="eentropy">     -0.14508175 </i>
    <i name="bandstr"> -19921.00105243 </i>
    <i name="atom"> 224016.65216645 </i>
    <i name="e_fr_energy">   -353.50837399 </i>
    <i name="e_wo_entrp">   -353.36329224 </i>
    <i name="e_0_energy">   -353.46001341 </i>
   </energy>
  </scstep>
  <scstep>
   <time name="dav">  338.31  338.03</time>
   <time name="total">  359.30  359.01</time>
   <energy>
    <i name="e_fr_energy">   -353.88548330 </i>
    <i name="e_wo_entrp">   -353.74152536 </i>
    <i name="e_0_energy">   -353.83749732 </i>
   </energy>
  </scstep>
  <scstep>
   <time name="dav">  394.26  394.12</time>
   <time name="total">  415.34  415.19</time>
   <energy>
    <i name="e_fr_energy">   -353.86674492 </i>
    <i name="e_wo_entrp">   -353.72150805 </i>
    <i name="e_0_energy">   -353.81833263 </i>
   </energy>
  </scstep>
  <scstep>
   <time name="dav">  394.69  394.37</time>
   <time name="total">  415.77  415.43</time>
   <energy>
    <i name="e_fr_energy">   -353.87893757 </i>
    <i name="e_wo_entrp">   -353.73426688 </i>
    <i name="e_0_energy">   -353.83071401 </i>
   </energy>
  </scstep>
  <scstep>
   <time name="dav">  354.40  354.11</time>
   <time name="total">  375.50  375.20</time>
   <energy>
    <i name="e_fr_energy">   -353.86222475 </i>
    <i name="e_wo_entrp">   -353.71700326 </i>
    <i name="e_0_energy">   -353.81381759 </i>
   </energy>
  </scstep>
  <scstep>
   <time name="dav">  406.92  406.59</time>
   <time name="total">  428.26  433.05</time>
   <energy>
    <i name="e_fr_energy">   -353.86184654 </i>
    <i name="e_wo_entrp">   -353.71663252 </i>
    <i name="e_0_energy">   -353.81344187 </i>
   </energy>
  </scstep>
  <scstep>
   <time name="dav">  368.83  368.53</time>
   <time name="total">  390.25  389.93</time>
   <energy>
    <i name="e_fr_energy">   -353.86177681 </i>
    <i name="e_wo_entrp">   -353.71656749 </i>
    <i name="e_0_energy">   -353.81337370 </i>
   </energy>
  </scstep>
  <scstep>
   <time name="dav">  358.12  357.83</time>
   <time name="total">  379.51  379.22</time>
   <energy>
    <i name="e_fr_energy">   -353.86157541 </i>
    <i name="e_wo_entrp">   -353.71637843 </i>
    <i name="e_0_energy">   -353.81317642 </i>
   </energy>
  </scstep>
  <scstep>
   <time name="dav">  359.15  358.86</time>
   <time name="total">  380.27  379.96</time>
   <energy>
    <i name="e_fr_energy">   -353.86166491 </i>
    <i name="e_wo_entrp">   -353.71647609 </i>
    <i name="e_0_energy">   -353.81326864 </i>
   </energy>
  </scstep>
  <scstep>
   <time name="dav">  383.78  383.47</time>
   <time name="total">  404.86  404.53</time>
   <energy>
    <i name="e_fr_energy">   -353.86130423 </i>
    <i name="e_wo_entrp">   -353.71614185 </i>
    <i name="e_0_energy">   -353.81291677 </i>
   </energy>
  </scstep>
  <scstep>
   <time name="dav">  429.21  428.85</time>
   <time name="total">  450.64  450.27</time>
   <energy>
    <i name="e_fr_energy">   -353.86121273 </i>
    <i name="e_wo_entrp">   -353.71604644 </i>
    <i name="e_0_energy">   -353.81282397 </i>
   </energy>
  </scstep>
  <scstep>
   <time name="dav">  428.17  427.82</time>
   <time name="total">  449.53  449.16</time>
   <energy>
    <i name="e_fr_energy">   -353.86123626 </i>
    <i name="e_wo_entrp">   -353.71606037 </i>
    <i name="e_0_energy">   -353.81284430 </i>
   </energy>
  </scstep>
  <scstep>
   <time name="dav">  370.62  370.32</time>
   <time name="total">  391.99  391.67</time>
   <energy>
    <i name="e_fr_energy">   -353.86119862 </i>
    <i name="e_wo_entrp">   -353.71601464 </i>
    <i name="e_0_energy">   -353.81280396 </i>
   </energy>
  </scstep>
  <scstep>
   <time name="dav">  399.98  399.65</time>
   <time name="total">  421.26  420.92</time>
   <energy>
    <i name="e_fr_energy">   -353.86121032 </i>
    <i name="e_wo_entrp">   -353.71603243 </i>
    <i name="e_0_energy">   -353.81281769 </i>
   </energy>
  </scstep>
  <scstep>
   <time name="dav">  319.85  319.59</time>
   <time name="total">  337.67  337.39</time>
   <energy>
    <i name="e_fr_energy">   -353.86119877 </i>
    <i name="e_wo_entrp">   -353.71602223 </i>
    <i name="e_0_energy">   -353.81280659 </i>
   </energy>
  </scstep>
  <scstep>
   <time name="dav">  201.27  201.10</time>
   <time name="total">  201.97  201.81</time>
   <energy>
    <i name="alphaZ">   7925.72117195 </i>
    <i name="ewald">-142726.42868068 </i>
    <i name="hartreedc"> -66215.26807586 </i>
    <i name="XCdc">   5592.87557787 </i>
    <i name="pawpsdc"> 169987.41984154 </i>
    <i name="pawaedc">-179013.31010679 </i>
    <i name="eentropy">     -0.14517638 </i>
    <i name="bandstr"> -19921.37791680 </i>
    <i name="atom"> 224016.65216645 </i>
    <i name="e_fr_energy">   -353.86119870 </i>
    <i name="e_wo_entrp">   -353.71602232 </i>
    <i name="e_0_energy">   -353.81280657 </i>
   </energy>
  </scstep>
  <structure>
   <crystal>
    <varray name="basis" >
     <v>       0.00000000       7.57875000       7.57875000 </v>
     <v>       7.57875000       0.00000000       7.57875000 </v>
     <v>       7.57875000       7.57875000       0.00000000 </v>
    </varray>
    <i name="volume">    870.60817206 </i>
    <varray name="rec_basis" >
     <v>      -0.06597394       0.06597394       0.06597394 </v>
     <v>       0.06597394      -0.06597394       0.06597394 </v>
     <v>       0.06597394       0.06597394      -0.06597394 </v>
    </varray>
   </crystal>
   <varray name="positions" >
    <v>       0.00098961      -0.00098961      -0.00098961 </v>
    <v>       0.00000000       0.00000000       0.25000000 </v>
    <v>       0.00000000       0.00000000       0.50000000 </v>
    <v>       0.00000000       0.00000000       0.75000000 </v>
    <v>       0.00000000       0.25000000       0.00000000 </v>
    <v>       0.00000000       0.25000000       0.25000000 </v>
    <v>       0.00000000       0.25000000       0.50000000 </v>
    <v>       0.00000000       0.25000000       0.75000000 </v>
    <v>       0.00000000       0.50000000       0.00000000 </v>
    <v>       0.00000000       0.50000000       0.25000000 </v>
    <v>       0.00000000       0.50000000       0.50000000 </v>
    <v>       0.00000000       0.50000000       0.75000000 </v>
    <v>       0.00000000       0.75000000       0.00000000 </v>
    <v>       0.00000000       0.75000000       0.25000000 </v>
    <v>       0.00000000       0.75000000       0.50000000 </v>
    <v>       0.00000000       0.75000000       0.75000000 </v>
    <v>       0.25000000       0.00000000       0.00000000 </v>
    <v>       0.25000000       0.00000000       0.25000000 </v>
    <v>       0.25000000       0.00000000       0.50000000 </v>
    <v>       0.25000000       0.00000000       0.75000000 </v>
    <v>       0.25000000       0.25000000       0.00000000 </v>
    <v>       0.25000000       0.25000000       0.25000000 </v>
    <v>       0.25000000       0.25000000       0.50000000 </v>
    <v>       0.25000000       0.25000000       0.75000000 </v>
    <v>       0.25000000       0.50000000       0.00000000 </v>
    <v>       0.25000000       0.50000000       0.25000000 </v>
    <v>       0.25000000       0.50000000       0.50000000 </v>
    <v>       0.25000000       0.50000000       0.75000000 </v>
    <v>       0.25000000       0.75000000       0.00000000 </v>
    <v>       0.25000000       0.75000000       0.25000000 </v>
    <v>       0.25000000       0.75000000       0.50000000 </v>
    <v>       0.25000000       0.75000000       0.75000000 </v>
    <v>       0.50000000       0.00000000       0.00000000 </v>
    <v>       0.50000000       0.00000000       0.25000000 </v>
    <v>       0.50000000       0.00000000       0.50000000 </v>
    <v>       0.50000000       0.00000000       0.75000000 </v>
    <v>       0.50000000       0.25000000       0.00000000 </v>
    <v>       0.50000000       0.25000000       0.25000000 </v>
    <v>       0.50000000       0.25000000       0.50000000 </v>
    <v>       0.50000000       0.25000000       0.75000000 </v>
    <v>       0.50000000       0.50000000       0.00000000 </v>
    <v>       0.50000000       0.50000000       0.25000000 </v>
    <v>       0.50000000       0.50000000       0.50000000 </v>
    <v>       0.50000000       0.50000000       0.75000000 </v>
    <v>       0.50000000       0.75000000       0.00000000 </v>
    <v>       0.50000000       0.75000000       0.25000000 </v>
    <v>       0.50000000       0.75000000       0.50000000 </v>
    <v>       0.50000000       0.75000000       0.75000000 </v>
    <v>       0.75000000       0.00000000       0.00000000 </v>
    <v>       0.75000000       0.00000000       0.25000000 </v>
    <v>       0.75000000       0.00000000       0.50000000 </v>
    <v>       0.75000000       0.00000000       0.75000000 </v>
    <v>       0.75000000       0.25000000       0.00000000 </v>
    <v>       0.75000000       0.25000000       0.25000000 </v>
    <v>       0.75000000       0.25000000       0.50000000 </v>
    <v>       0.75000000       0.25000000       0.75000000 </v>
    <v>       0.75000000       0.50000000       0.00000000 </v>
    <v>       0.75000000       0.50000000       0.25000000 </v>
    <v>       0.75000000       0.50000000       0.50000000 </v>
    <v>       0.75000000       0.50000000       0.75000000 </v>
    <v>       0.75000000       0.75000000       0.00000000 </v>
    <v>       0.75000000       0.75000000       0.25000000 </v>
    <v>       0.75000000       0.75000000       0.50000000 </v>
    <v>       0.75000000       0.75000000       0.75000000 </v>
   </varray>
  </structure>
  <varray name="forces" >
   <v>       0.05354361       0.00000000      -0.00000000 </v>
   <v>      -0.00396689      -0.00350637      -0.00000000 </v>
   <v>      -0.00037973      -0.00012214      -0.00000000 </v>
   <v>      -0.00444043      -0.00403431      -0.00000000 </v>
   <v>      -0.00396689       0.00000000      -0.00350637 </v>
   <v>      -0.00093823      -0.00043631      -0.00043631 </v>
   <v>      -0.00036345      -0.00050490       0.00021365 </v>
   <v>      -0.00093192      -0.00003265       0.00003265 </v>
   <v>      -0.00037973       0.00000000      -0.00012214 </v>
   <v>      -0.00036345       0.00021365      -0.00050490 </v>
   <v>       0.00000694       0.00000000      -0.00000000 </v>
   <v>      -0.00031810       0.00016947      -0.00043386 </v>
   <v>      -0.00444043       0.00000000      -0.00403431 </v>
   <v>      -0.00093192       0.00003265      -0.00003265 </v>
   <v>      -0.00031810      -0.00043386       0.00016947 </v>
   <v>      -0.00100853      -0.00049510      -0.00049510 </v>
   <v>      -0.00093192       0.00003265       0.00003265 </v>
   <v>      -0.00031810      -0.00043386      -0.00016947 </v>
   <v>      -0.00100853      -0.00049510       0.00049510 </v>
   <v>      -0.00444043       0.00000000       0.00403431 </v>
   <v>      -0.00031810      -0.00016947      -0.00043386 </v>
   <v>      -0.00040597       0.00000000      -0.00000000 </v>
   <v>      -0.00036345      -0.00021365       0.00050490 </v>
   <v>       0.00053319       0.00000000       0.00006003 </v>
   <v>      -0.00100853       0.00049510      -0.00049510 </v>
   <v>      -0.00036345       0.00050490      -0.00021365 </v>
   <v>       0.00013494      -0.00001286      -0.00001286 </v>
   <v>      -0.00005013       0.00000000       0.00004491 </v>
   <v>      -0.00444043       0.00403431      -0.00000000 </v>
   <v>       0.00053319       0.00006003      -0.00000000 </v>
   <v>      -0.00005013       0.00004491      -0.00000000 </v>
   <v>      -0.00156507       0.00000000      -0.00000000 </v>
   <v>       0.00000694       0.00000000      -0.00000000 </v>
   <v>      -0.00031810       0.00016947       0.00043386 </v>
   <v>      -0.00037973       0.00000000       0.00012214 </v>
   <v>      -0.00036345       0.00021365       0.00050490 </v>
   <v>      -0.00031810       0.00043386       0.00016947 </v>
   <v>      -0.00093823       0.00043631       0.00043631 </v>
   <v>      -0.00006107       0.00000000      -0.00007908 </v>
   <v>       0.00013494       0.00001286      -0.00001286 </v>
   <v>      -0.00037973       0.00012214      -0.00000000 </v>
   <v>      -0.00006107      -0.00007908      -0.00000000 </v>
   <v>       0.00021692       0.00000000      -0.00000000 </v>
   <v>      -0.00005013      -0.00004491      -0.00000000 </v>
   <v>      -0.00036345       0.00050490       0.00021365 </v>
   <v>       0.00013494      -0.00001286       0.00001286 </v>
   <v>      -0.00005013       0.00000000      -0.00004491 </v>
   <v>      -0.00100853       0.00049510       0.00049510 </v>
   <v>      -0.00093192      -0.00003265      -0.00003265 </v>
   <v>      -0.00396689       0.00000000       0.00350637 </v>
   <v>      -0.00093823      -0.00043631       0.00043631 </v>
   <v>      -0.00036345      -0.00050490      -0.00021365 </v>
   <v>      -0.00396689       0.00350637      -0.00000000 </v>
   <v>      -0.00150982       0.00000000      -0.00000000 </v>
   <v>      -0.00006107       0.00007908      -0.00000000 </v>
   <v>       0.00053319      -0.00006003      -0.00000000 </v>
   <v>      -0.00093823       0.00043631      -0.00043631 </v>
   <v>      -0.00006107       0.00000000       0.00007908 </v>
   <v>       0.00013494       0.00001286       0.00001286 </v>
   <v>      -0.00031810       0.00043386      -0.00016947 </v>
   <v>      -0.00036345      -0.00021365      -0.00050490 </v>
   <v>       0.00053319       0.00000000      -0.00006003 </v>
   <v>      -0.00031810      -0.00016947       0.00043386 </v>
   <v>      -0.00040597       0.00000000      -0.00000000 </v>
  </varray>
  <varray name="stress" >
   <v>    -258.90630665       0.00000000      -0.00000000 </v>
   <v>      -0.00000000    -258.90424928      -0.00000000 </v>
   <v>       0.00000000      -0.00000000    -258.90424928 </v>
  </varray>
  <energy>
   <i name="e_fr_energy">   -353.86119870 </i>
   <i name="e_wo_entrp">   -353.81280657 </i>
   <i name="e_0_energy">     -0.14517638 </i>
  </energy>
  <dynmat>
   <varray name="hessian" >
    <v>      -0.05996378       0.00000000       0.00000000       0.00469582       0.00416974       0.00000000       0.00037595       0.00014809      -0.00000000       0.00469582       0.00416974      -0.00000000       0.00469582      -0.00000000       0.00416974       0.00104689       0.00053522       0.00053522       0.00038231       0.00053522      -0.00023427       0.00115547      -0.00000000       0.00000000       0.00037595      -0.00000000       0.00014809       0.00038231      -0.00023427       0.00053522       0.00006590      -0.00000000       0.00000000       0.00038231      -0.00023427       0.00053522       0.00469582      -0.00000000       0.00416974       0.00115547       0.00000000       0.00000000       0.00038231       0.00053522      -0.00023427       0.00104689       0.00053522       0.00053522       0.00115547      -0.00000000      -0.00000000       0.00038231       0.00053522       0.00023427       0.00104689       0.00053522      -0.00053522       0.00469582      -0.00000000      -0.00416974       0.00038231       0.00023427       0.00053522       0.00036843       0.00000000      -0.00000000       0.00038231       0.00023427      -0.00053522      -0.00055962       0.00000000       0.00000000       0.00104689      -0.00053522       0.00053522       0.00038231      -0.00053522       0.00023427      -0.00009986       0.00000000      -0.00000000       0.00005080       0.00000000      -0.00008352       0.00469582      -0.00416974       0.00000000      -0.00055962       0.00000000      -0.00000000       0.00005080      -0.00008352      -0.00000000       0.00167373      -0.00000000       0.00000000       0.00006590       0.00000000       0.00000000       0.00038231      -0.00023427      -0.00053522       0.00037595       0.00000000      -0.00014809       0.00038231      -0.00023427      -0.00053522       0.00038231      -0.00053522      -0.00023427       0.00104689      -0.00053522      -0.00053522       0.00005080       0.00000000       0.00008352      -0.00009986       0.00000000       0.00000000       0.00037595      -0.00014809      -0.00000000       0.00005080       0.00008352      -0.00000000      -0.00020518       0.00000000      -0.00000000       0.00005080       0.00008352       0.00000000       0.00038231      -0.00053522      -0.00023427      -0.00009986      -0.00000000      -0.00000000       0.00005080      -0.00000000       0.00008352       0.00104689      -0.00053522      -0.00053522       0.00115547       0.00000000      -0.00000000       0.00469582      -0.00000000      -0.00416974       0.00104689       0.00053522      -0.00053522       0.00038231       0.00053522       0.00023427       0.00469582      -0.00416974      -0.00000000       0.00167373      -0.00000000      -0.00000000       0.00005080      -0.00008352       0.00000000      -0.00055962      -0.00000000      -0.00000000       0.00104689      -0.00053522       0.00053522       0.00005080      -0.00000000      -0.00008352      -0.00009986      -0.00000000       0.00000000       0.00038231      -0.00053522       0.00023427       0.00038231       0.00023427       0.00053522      -0.00055962       0.00000000      -0.00000000       0.00038231       0.00023427      -0.00053522       0.00036843       0.00000000      -0.00000000 </v>
    <v>       0.00000000      -0.05996378       0.00000000       0.00416974       0.00469582      -0.00000000       0.00014809       0.00037595       0.00000000       0.00416974       0.00469582       0.00000000      -0.00000000       0.00115547      -0.00000000       0.00053522       0.00038231       0.00023427       0.00053522       0.00104689      -0.00053522       0.00000000       0.00469582      -0.00416974      -0.00000000       0.00006590       0.00000000      -0.00023427       0.00038231      -0.00053522      -0.00000000       0.00037595      -0.00014809      -0.00023427       0.00038231      -0.00053522      -0.00000000       0.00115547       0.00000000      -0.00000000       0.00469582      -0.00416974       0.00053522       0.00104689      -0.00053522       0.00053522       0.00038231       0.00023427       0.00000000       0.00469582       0.00416974       0.00053522       0.00104689       0.00053522       0.00053522       0.00038231      -0.00023427      -0.00000000       0.00115547       0.00000000       0.00023427       0.00038231       0.00053522       0.00000000       0.00036843       0.00000000       0.00023427       0.00038231      -0.00053522       0.00000000      -0.00055962       0.00000000      -0.00053522       0.00038231      -0.00023427      -0.00053522       0.00104689      -0.00053522      -0.00000000       0.00005080       0.00008352      -0.00000000      -0.00009986      -0.00000000      -0.00416974       0.00469582       0.00000000      -0.00000000       0.00167373      -0.00000000      -0.00008352       0.00005080      -0.00000000      -0.00000000      -0.00055962       0.00000000       0.00000000       0.00037595       0.00014809      -0.00023427       0.00038231       0.00053522       0.00000000       0.00006590       0.00000000      -0.00023427       0.00038231       0.00053522      -0.00053522       0.00104689       0.00053522      -0.00053522       0.00038231       0.00023427      -0.00000000      -0.00009986       0.00000000      -0.00000000       0.00005080      -0.00008352      -0.00014809       0.00037595       0.00000000       0.00008352       0.00005080       0.00000000       0.00000000      -0.00020518       0.00000000       0.00008352       0.00005080      -0.00000000      -0.00053522       0.00104689       0.00053522       0.00000000       0.00005080      -0.00008352       0.00000000      -0.00009986      -0.00000000      -0.00053522       0.00038231       0.00023427      -0.00000000       0.00469582       0.00416974      -0.00000000       0.00115547      -0.00000000       0.00053522       0.00038231      -0.00023427       0.00053522       0.00104689       0.00053522      -0.00416974       0.00469582      -0.00000000      -0.00000000      -0.00055962       0.00000000      -0.00008352       0.00005080       0.00000000       0.00000000       0.00167373       0.00000000      -0.00053522       0.00038231      -0.00023427       0.00000000      -0.00009986       0.00000000       0.00000000       0.00005080       0.00008352      -0.00053522       0.00104689      -0.00053522       0.00023427       0.00038231       0.00053522       0.00000000      -0.00055962      -0.00000000       0.00023427       0.00038231      -0.00053522       0.00000000       0.00036843       0.00000000 </v>
    <v>       0.00000000       0.00000000      -0.05996378      -0.00000000       0.00000000       0.00115547      -0.00000000       0.00000000       0.00006590       0.00000000      -0.00000000       0.00115547       0.00416974       0.00000000       0.00469582       0.00053522       0.00023427       0.00038231      -0.00023427      -0.00053522       0.00038231       0.00000000      -0.00416974       0.00469582       0.00014809       0.00000000       0.00037595       0.00053522      -0.00053522       0.00104689       0.00000000      -0.00014809       0.00037595       0.00053522      -0.00053522       0.00104689       0.00416974      -0.00000000       0.00469582       0.00000000      -0.00416974       0.00469582      -0.00023427      -0.00053522       0.00038231       0.00053522       0.00023427       0.00038231      -0.00000000       0.00416974       0.00469582       0.00023427       0.00053522       0.00038231      -0.00053522      -0.00023427       0.00038231      -0.00416974      -0.00000000       0.00469582       0.00053522       0.00053522       0.00104689      -0.00000000       0.00000000       0.00036843      -0.00053522      -0.00053522       0.00104689      -0.00000000      -0.00000000       0.00167373       0.00053522      -0.00023427       0.00038231       0.00023427      -0.00053522       0.00038231       0.00000000       0.00008352       0.00005080      -0.00008352       0.00000000       0.00005080      -0.00000000      -0.00000000       0.00115547      -0.00000000       0.00000000      -0.00055962       0.00000000       0.00000000      -0.00009986      -0.00000000       0.00000000      -0.00055962       0.00000000       0.00014809       0.00037595      -0.00053522       0.00053522       0.00104689      -0.00014809       0.00000000       0.00037595      -0.00053522       0.00053522       0.00104689      -0.00023427       0.00053522       0.00038231      -0.00053522       0.00023427       0.00038231       0.00008352      -0.00000000       0.00005080      -0.00000000      -0.00008352       0.00005080      -0.00000000       0.00000000       0.00006590       0.00000000      -0.00000000      -0.00009986      -0.00000000       0.00000000      -0.00020518      -0.00000000       0.00000000      -0.00009986      -0.00023427       0.00053522       0.00038231       0.00000000      -0.00008352       0.00005080       0.00008352       0.00000000       0.00005080      -0.00053522       0.00023427       0.00038231      -0.00000000       0.00416974       0.00469582      -0.00416974       0.00000000       0.00469582      -0.00053522      -0.00023427       0.00038231       0.00023427       0.00053522       0.00038231       0.00000000       0.00000000       0.00115547       0.00000000       0.00000000      -0.00055962      -0.00000000      -0.00000000      -0.00009986      -0.00000000      -0.00000000      -0.00055962       0.00053522      -0.00023427       0.00038231      -0.00008352      -0.00000000       0.00005080      -0.00000000       0.00008352       0.00005080       0.00023427      -0.00053522       0.00038231       0.00053522       0.00053522       0.00104689       0.00000000       0.00000000       0.00167373      -0.00053522      -0.00053522       0.00104689      -0.00000000       0.00000000       0.00036843 </v>
[...]
       <r>    18.6950     0.0000   648.0000 </r>
       <r>    18.9717     0.0000   648.0000 </r>
       <r>    19.2485     0.0000   648.0000 </r>
       <r>    19.5252     0.0000   648.0000 </r>
       <r>    19.8019     0.0000   648.0000 </r>
       <r>    20.0786     0.0000   648.0000 </r>
       <r>    20.3554     0.0000   648.0000 </r>
       <r>    20.6321     0.0000   648.0000 </r>
       <r>    20.9088     0.0000   648.0000 </r>
      </set>
      <set comment="spin 2">
       <r>   -62.1103     0.0000     0.0000 </r>
       <r>   -61.8336     0.0000     0.0000 </r>
       <r>   -61.5568     0.0000     0.0000 </r>
       <r>   -61.2801     0.0000     0.0000 </r>
       <r>   -61.0034     0.0000     0.0000 </r>
       <r>   -60.7266     0.0000     0.0000 </r>
       <r>   -60.4499     0.0000     0.0000 </r>
       <r>   -60.1732     0.0000     0.0000 </r>
       <r>   -59.8965     0.0000     0.0000 </r>
       <r>   -59.6197     0.0000     0.0000 </r>
       <r>   -59.3430     0.0000     0.0000 </r>
       <r>   -59.0663    -0.0000    -0.0000 </r>
       <r>   -58.7895    -0.0000    -0.0000 </r>
       <r>   -58.5128    -0.0000    -0.0000 </r>
       <r>   -58.2361    -0.0000    -0.0000 </r>
       <r>   -57.9593    -0.0611    -0.0169 </r>
       <r>   -57.6826   -13.8167    -3.8404 </r>
       <r>   -57.4059   203.1276    52.3712 </r>
       <r>   -57.1291   524.4338   197.4980 </r>
       <r>   -56.8524   -18.8677   192.2767 </r>
       <r>   -56.5757    -0.9996   192.0001 </r>
       <r>   -56.2990    -0.0003   192.0000 </r>
       <r>   -56.0222    -0.0000   192.0000 </r>
       <r>   -55.7455     0.0000   192.0000 </r>
       <r>   -55.4688     0.0000   192.0000 </r>
       <r>   -55.1920     0.0000   192.0000 </r>
       <r>   -54.9153     0.0000   192.0000 </r>
       <r>   -54.6386     0.0000   192.0000 </r>
       <r>   -54.3618     0.0000   192.0000 </r>
       <r>   -54.0851     0.0000   192.0000 </r>
       <r>   -53.8084     0.0000   192.0000 </r>
       <r>   -53.5317     0.0000   192.0000 </r>
       <r>   -53.2549     0.0000   192.0000 </r>
       <r>   -52.9782     0.0000   192.0000 </r>
       <r>   -52.7015     0.0000   192.0000 </r>
       <r>   -52.4247     0.0000   192.0000 </r>
       <r>   -52.1480     0.0000   192.0000 </r>
       <r>   -51.8713     0.0000   192.0000 </r>
       <r>   -51.5945     0.0000   192.0000 </r>
       <r>   -51.3178     0.0000   192.0000 </r>
       <r>   -51.0411     0.0000   192.0000 </r>
       <r>   -50.7643     0.0000   192.0000 </r>
       <r>   -50.4876     0.0000   192.0000 </r>
       <r>   -50.2109     0.0000   192.0000 </r>
       <r>   -49.9342     0.0000   192.0000 </r>
       <r>   -49.6574     0.0000   192.0000 </r>
       <r>   -49.3807     0.0000   192.0000 </r>
       <r>   -49.1040     0.0000   192.0000 </r>
       <r>   -48.8272     0.0000   192.0000 </r>
       <r>   -48.5505     0.0000   192.0000 </r>
       <r>   -48.2738     0.0000   192.0000 </r>
       <r>   -47.9970     0.0000   192.0000 </r>
       <r>   -47.7203     0.0000   192.0000 </r>
       <r>   -47.4436     0.0000   192.0000 </r>
       <r>   -47.1669     0.0000   192.0000 </r>
       <r>   -46.8901     0.0000   192.0000 </r>
       <r>   -46.6134     0.0000   192.0000 </r>
       <r>   -46.3367     0.0000   192.0000 </r>
       <r>   -46.0599     0.0000   192.0000 </r>
       <r>   -45.7832     0.0000   192.0000 </r>
       <r>   -45.5065     0.0000   192.0000 </r>
       <r>   -45.2297     0.0000   192.0000 </r>
       <r>   -44.9530     0.0000   192.0000 </r>
       <r>   -44.6763     0.0000   192.0000 </r>
       <r>   -44.3995     0.0000   192.0000 </r>
       <r>   -44.1228     0.0000   192.0000 </r>
       <r>   -43.8461     0.0000   192.0000 </r>
       <r>   -43.5694     0.0000   192.0000 </r>
       <r>   -43.2926     0.0000   192.0000 </r>
       <r>   -43.0159     0.0000   192.0000 </r>
       <r>   -42.7392     0.0000   192.0000 </r>
       <r>   -42.4624     0.0000   192.0000 </r>
       <r>   -42.1857     0.0000   192.0000 </r>
       <r>   -41.9090     0.0000   192.0000 </r>
       <r>   -41.6322     0.0000   192.0000 </r>
       <r>   -41.3555     0.0000   192.0000 </r>
       <r>   -41.0788     0.0000   192.0000 </r>
       <r>   -40.8021     0.0000   192.0000 </r>
       <r>   -40.5253     0.0000   192.0000 </r>
       <r>   -40.2486     0.0000   192.0000 </r>
       <r>   -39.9719     0.0000   192.0000 </r>
       <r>   -39.6951     0.0000   192.0000 </r>
       <r>   -39.4184     0.0000   192.0000 </r>
       <r>   -39.1417     0.0000   192.0000 </r>
       <r>   -38.8649     0.0000   192.0000 </r>
       <r>   -38.5882     0.0000   192.0000 </r>
       <r>   -38.3115     0.0000   192.0000 </r>
       <r>   -38.0347     0.0000   192.0000 </r>
       <r>   -37.7580     0.0000   192.0000 </r>
       <r>   -37.4813     0.0000   192.0000 </r>
       <r>   -37.2046     0.0000   192.0000 </r>
       <r>   -36.9278     0.0000   192.0000 </r>
       <r>   -36.6511     0.0000   192.0000 </r>
       <r>   -36.3744     0.0000   192.0000 </r>
       <r>   -36.0976     0.0000   192.0000 </r>
       <r>   -35.8209     0.0000   192.0000 </r>
       <r>   -35.5442     0.0000   192.0000 </r>
       <r>   -35.2674     0.0000   192.0000 </r>
       <r>   -34.9907     0.0000   192.0000 </r>
       <r>   -34.7140     0.0000   192.0000 </r>
       <r>   -34.4373     0.0000   192.0000 </r>
       <r>   -34.1605     0.0000   192.0000 </r>
       <r>   -33.8838     0.0000   192.0000 </r>
       <r>   -33.6071     0.0000   192.0000 </r>
       <r>   -33.3303     0.0000   192.0000 </r>
       <r>   -33.0536     0.0000   192.0000 </r>
       <r>   -32.7769     0.0000   192.0000 </r>
       <r>   -32.5001     0.0000   192.0000 </r>
       <r>   -32.2234     0.0000   192.0000 </r>
       <r>   -31.9467     0.0000   192.0000 </r>
       <r>   -31.6699     0.0000   192.0000 </r>
       <r>   -31.3932     0.0000   192.0000 </r>
       <r>   -31.1165     0.0000   192.0000 </r>
       <r>   -30.8398     0.0000   192.0000 </r>
       <r>   -30.5630     0.0000   192.0000 </r>
       <r>   -30.2863     0.0000   192.0000 </r>
       <r>   -30.0096     0.0000   192.0000 </r>
       <r>   -29.7328     0.0000   192.0000 </r>
       <r>   -29.4561     0.0000   192.0000 </r>
       <r>   -29.1794     0.0000   192.0000 </r>
       <r>   -28.9026     0.0000   192.0000 </r>
       <r>   -28.6259     0.0000   192.0000 </r>
       <r>   -28.3492     0.0000   192.0000 </r>
       <r>   -28.0725     0.0000   192.0000 </r>
       <r>   -27.7957     0.0000   192.0000 </r>
       <r>   -27.5190     0.0000   192.0000 </r>
       <r>   -27.2423     0.0000   192.0000 </r>
       <r>   -26.9655     0.0000   192.0000 </r>
       <r>   -26.6888     0.0000   192.0000 </r>
       <r>   -26.4121     0.0000   192.0000 </r>
       <r>   -26.1353     0.0000   192.0000 </r>
       <r>   -25.8586     0.0000   192.0000 </r>
       <r>   -25.5819     0.0000   192.0000 </r>
       <r>   -25.3051     0.0000   192.0000 </r>
       <r>   -25.0284     0.0000   192.0000 </r>
       <r>   -24.7517     0.0000   192.0000 </r>
       <r>   -24.4750     0.0000   192.0000 </r>
       <r>   -24.1982     0.0000   192.0000 </r>
       <r>   -23.9215     0.0000   192.0000 </r>
       <r>   -23.6448     0.0000   192.0000 </r>
       <r>   -23.3680     0.0000   192.0000 </r>
       <r>   -23.0913     0.0000   192.0000 </r>
       <r>   -22.8146     0.0000   192.0000 </r>
       <r>   -22.5378     0.0000   192.0000 </r>
       <r>   -22.2611     0.0000   192.0000 </r>
       <r>   -21.9844     0.0000   192.0000 </r>
       <r>   -21.7077     0.0000   192.0000 </r>
       <r>   -21.4309     0.0000   192.0000 </r>
       <r>   -21.1542     0.0000   192.0000 </r>
       <r>   -20.8775     0.0000   192.0000 </r>
       <r>   -20.6007     0.0000   192.0000 </r>
       <r>   -20.3240     0.0000   192.0000 </r>
       <r>   -20.0473     0.0000   192.0000 </r>
       <r>   -19.7705     0.0000   192.0000 </r>
       <r>   -19.4938     0.0000   192.0000 </r>
       <r>   -19.2171     0.0000   192.0000 </r>
       <r>   -18.9403     0.0000   192.0000 </r>
       <r>   -18.6636     0.0000   192.0000 </r>
       <r>   -18.3869     0.0000   192.0000 </r>
       <r>   -18.1102     0.0000   192.0000 </r>
       <r>   -17.8334     0.0000   192.0000 </r>
       <r>   -17.5567     0.0000   192.0000 </r>
       <r>   -17.2800     0.0000   192.0000 </r>
       <r>   -17.0032     0.0000   192.0000 </r>
       <r>   -16.7265     0.0000   192.0000 </r>
       <r>   -16.4498     0.0000   192.0000 </r>
       <r>   -16.1730     0.0000   192.0000 </r>
       <r>   -15.8963     0.0000   192.0000 </r>
       <r>   -15.6196     0.0000   192.0000 </r>
       <r>   -15.3429     0.0000   192.0000 </r>
       <r>   -15.0661     0.0000   192.0000 </r>
       <r>   -14.7894     0.0000   192.0000 </r>
       <r>   -14.5127     0.0000   192.0000 </r>
       <r>   -14.2359     0.0000   192.0000 </r>
       <r>   -13.9592     0.0000   192.0000 </r>
       <r>   -13.6825     0.0000   192.0000 </r>
       <r>   -13.4057     0.0000   192.0000 </r>
       <r>   -13.1290     0.0000   192.0000 </r>
       <r>   -12.8523     0.0000   192.0000 </r>
       <r>   -12.5755     0.0000   192.0000 </r>
       <r>   -12.2988     0.0000   192.0000 </r>
       <r>   -12.0221     0.0000   192.0000 </r>
       <r>   -11.7454     0.0000   192.0000 </r>
       <r>   -11.4686     0.0000   192.0000 </r>
       <r>   -11.1919     0.0000   192.0000 </r>
       <r>   -10.9152     0.0000   192.0000 </r>
       <r>   -10.6384     0.0000   192.0000 </r>
       <r>   -10.3617     0.0000   192.0000 </r>
       <r>   -10.0850     0.0000   192.0000 </r>
       <r>    -9.8082     0.0000   192.0000 </r>
       <r>    -9.5315     0.0000   192.0000 </r>
       <r>    -9.2548     0.0000   192.0000 </r>
       <r>    -8.9781     0.0000   192.0000 </r>
       <r>    -8.7013     0.0000   192.0000 </r>
       <r>    -8.4246     0.0000   192.0000 </r>
       <r>    -8.1479     0.0000   192.0000 </r>
       <r>    -7.8711     0.0000   192.0000 </r>
       <r>    -7.5944     0.0000   192.0000 </r>
       <r>    -7.3177     0.0000   192.0000 </r>
       <r>    -7.0409     0.0000   192.0000 </r>
       <r>    -6.7642     0.0000   192.0000 </r>
       <r>    -6.4875     0.0000   192.0000 </r>
       <r>    -6.2107     0.0000   192.0000 </r>
       <r>    -5.9340     0.0000   192.0000 </r>
       <r>    -5.6573     0.0000   192.0000 </r>
       <r>    -5.3806     0.0000   192.0000 </r>
       <r>    -5.1038     0.0000   192.0000 </r>
       <r>    -4.8271     0.0000   192.0000 </r>
       <r>    -4.5504     0.0000   192.0000 </r>
       <r>    -4.2736     0.0000   192.0000 </r>
       <r>    -3.9969    -0.0000   192.0000 </r>
       <r>    -3.7202    -0.0000   192.0000 </r>
       <r>    -3.4434    -0.0000   192.0000 </r>
       <r>    -3.1667    -0.0000   192.0000 </r>
       <r>    -2.8900    -0.0000   192.0000 </r>
       <r>    -2.6133    -0.0033   191.9991 </r>
       <r>    -2.3365    -0.0026   191.9984 </r>
       <r>    -2.0598     0.8156   192.2240 </r>
       <r>    -1.7831     1.3700   192.6032 </r>
       <r>    -1.5063     2.4652   193.2854 </r>
       <r>    -1.2296     3.3111   194.2017 </r>
       <r>    -0.9529     1.4123   194.5925 </r>
       <r>    -0.6761     5.6441   196.1544 </r>
       <r>    -0.3994     3.9656   197.2518 </r>
       <r>    -0.1227     3.6491   198.2616 </r>
       <r>     0.1541     3.6989   199.2852 </r>
       <r>     0.4308     8.8777   201.7419 </r>
       <r>     0.7075     5.8617   203.3640 </r>
       <r>     0.9842     4.2625   204.5436 </r>
       <r>     1.2610     8.3928   206.8661 </r>
       <r>     1.5377    13.3860   210.5704 </r>
       <r>     1.8144    10.4866   213.4724 </r>
       <r>     2.0912    13.7561   217.2791 </r>
       <r>     2.3679    33.5505   226.5636 </r>
       <r>     2.6446    34.0670   235.9909 </r>
       <r>     2.9214    44.9454   248.4287 </r>
       <r>     3.1981    66.7882   266.9110 </r>
       <r>     3.4748    68.9358   285.9877 </r>
       <r>     3.7515    76.8223   307.2467 </r>
       <r>     4.0283   104.5756   336.1860 </r>
       <r>     4.3050   124.5627   370.6563 </r>
       <r>     4.5817   106.4480   400.1137 </r>
       <r>     4.8585   104.6195   429.0651 </r>
       <r>     5.1352   103.2932   457.6495 </r>
       <r>     5.4119   116.2305   489.8140 </r>
       <r>     5.6887   125.2004   524.4607 </r>
       <r>     5.9654    37.0358   534.7097 </r>
       <r>     6.2421    10.3134   537.5637 </r>
       <r>     6.5189    10.9832   540.6031 </r>
       <r>     6.7956    17.0051   545.3089 </r>
       <r>     7.0723    11.5523   548.5058 </r>
       <r>     7.3490     7.3184   550.5310 </r>
       <r>     7.6258     9.2949   553.1032 </r>
       <r>     7.9025    15.2711   557.3292 </r>
       <r>     8.1792     7.8776   559.5092 </r>
       <r>     8.4560     9.7997   562.2210 </r>
       <r>     8.7327     5.4570   563.7311 </r>
       <r>     9.0094    11.3343   566.8677 </r>
       <r>     9.2862     3.2170   567.7579 </r>
       <r>     9.5629     3.5484   568.7399 </r>
       <r>     9.8396    10.3268   571.5976 </r>
       <r>    10.1163     5.8517   573.2170 </r>
       <r>    10.3931     8.7938   575.6505 </r>
       <r>    10.6698    14.8430   579.7580 </r>
       <r>    10.9465    11.7077   582.9979 </r>
       <r>    11.2233     4.0797   584.1269 </r>
       <r>    11.5000    10.7831   587.1109 </r>
       <r>    11.7767     7.9524   589.3116 </r>
       <r>    12.0535     9.4532   591.9275 </r>
       <r>    12.3302    10.3053   594.7793 </r>
       <r>    12.6069    14.1969   598.7081 </r>
       <r>    12.8837     4.6689   600.0001 </r>
       <r>    13.1604    10.0169   602.7721 </r>
       <r>    13.4371    10.0013   605.5397 </r>
       <r>    13.7138     9.6874   608.2205 </r>
       <r>    13.9906     9.0115   610.7143 </r>
       <r>    14.2673    10.4511   613.6064 </r>
       <r>    14.5440    19.6615   619.0474 </r>
       <r>    14.8208    16.0269   623.4825 </r>
       <r>    15.0975     8.2767   625.7729 </r>
       <r>    15.3742    17.1961   630.5316 </r>
       <r>    15.6510     9.1640   633.0675 </r>
       <r>    15.9277    12.9755   636.6583 </r>
       <r>    16.2044    14.2498   640.6016 </r>
       <r>    16.4811     7.7282   642.7402 </r>
       <r>    16.7579    11.4250   645.9019 </r>
       <r>    17.0346     6.0417   647.5738 </r>
       <r>    17.3113     1.6243   648.0233 </r>
       <r>    17.5881    -0.0816   648.0007 </r>
       <r>    17.8648    -0.0026   648.0000 </r>
       <r>    18.1415    -0.0000   648.0000 </r>
       <r>    18.4183    -0.0000   648.0000 </r>
       <r>    18.6950     0.0000   648.0000 </r>
       <r>    18.9717     0.0000   648.0000 </r>
       <r>    19.2485     0.0000   648.0000 </r>
       <r>    19.5252     0.0000   648.0000 </r>
       <r>    19.8019     0.0000   648.0000 </r>
       <r>    20.0786     0.0000   648.0000 </r>
       <r>    20.3554     0.0000   648.0000 </r>
       <r>    20.6321     0.0000   648.0000 </r>
       <r>    20.9088     0.0000   648.0000 </r>
      </set>
     </set>
    </array>
   </total>
  </dos>
 </calculation>
 <structure name="finalpos" >
  <crystal>
   <varray name="basis" >
    <v>       0.00000000       7.57875000       7.57875000 </v>
    <v>       7.57875000       0.00000000       7.57875000 </v>
    <v>       7.57875000       7.57875000       0.00000000 </v>
   </varray>
   <i name="volume">    870.60817206 </i>
   <varray name="rec_basis" >
    <v>      -0.06597394       0.06597394       0.06597394 </v>
    <v>       0.06597394      -0.06597394       0.06597394 </v>
    <v>       0.06597394       0.06597394      -0.06597394 </v>
   </varray>
  </crystal>
  <varray name="positions" >
   <v>       0.00098961      -0.00098961      -0.00098961 </v>
   <v>       0.00000000       0.00000000       0.25000000 </v>
   <v>       0.00000000       0.00000000       0.50000000 </v>
   <v>       0.00000000       0.00000000       0.75000000 </v>
   <v>       0.00000000       0.25000000       0.00000000 </v>
   <v>       0.00000000       0.25000000       0.25000000 </v>
   <v>       0.00000000       0.25000000       0.50000000 </v>
   <v>       0.00000000       0.25000000       0.75000000 </v>
   <v>       0.00000000       0.50000000       0.00000000 </v>
   <v>       0.00000000       0.50000000       0.25000000 </v>
   <v>       0.00000000       0.50000000       0.50000000 </v>
   <v>       0.00000000       0.50000000       0.75000000 </v>
   <v>       0.00000000       0.75000000       0.00000000 </v>
   <v>       0.00000000       0.75000000       0.25000000 </v>
   <v>       0.00000000       0.75000000       0.50000000 </v>
   <v>       0.00000000       0.75000000       0.75000000 </v>
   <v>       0.25000000       0.00000000       0.00000000 </v>
   <v>       0.25000000       0.00000000       0.25000000 </v>
   <v>       0.25000000       0.00000000       0.50000000 </v>
   <v>       0.25000000       0.00000000       0.75000000 </v>
   <v>       0.25000000       0.25000000       0.00000000 </v>
   <v>       0.25000000       0.25000000       0.25000000 </v>
   <v>       0.25000000       0.25000000       0.50000000 </v>
   <v>       0.25000000       0.25000000       0.75000000 </v>
   <v>       0.25000000       0.50000000       0.00000000 </v>
   <v>       0.25000000       0.50000000       0.25000000 </v>
   <v>       0.25000000       0.50000000       0.50000000 </v>
   <v>       0.25000000       0.50000000       0.75000000 </v>
   <v>       0.25000000       0.75000000       0.00000000 </v>
   <v>       0.25000000       0.75000000       0.25000000 </v>
   <v>       0.25000000       0.75000000       0.50000000 </v>
   <v>       0.25000000       0.75000000       0.75000000 </v>
   <v>       0.50000000       0.00000000       0.00000000 </v>
   <v>       0.50000000       0.00000000       0.25000000 </v>
   <v>       0.50000000       0.00000000       0.50000000 </v>
   <v>       0.50000000       0.00000000       0.75000000 </v>
   <v>       0.50000000       0.25000000       0.00000000 </v>
   <v>       0.50000000       0.25000000       0.25000000 </v>
   <v>       0.50000000       0.25000000       0.50000000 </v>
   <v>       0.50000000       0.25000000       0.75000000 </v>
   <v>       0.50000000       0.50000000       0.00000000 </v>
   <v>       0.50000000       0.50000000       0.25000000 </v>
   <v>       0.50000000       0.50000000       0.50000000 </v>
   <v>       0.50000000       0.50000000       0.75000000 </v>
   <v>       0.50000000       0.75000000       0.00000000 </v>
   <v>       0.50000000       0.75000000       0.25000000 </v>
   <v>       0.50000000       0.75000000       0.50000000 </v>
   <v>       0.50000000       0.75000000       0.75000000 </v>
   <v>       0.75000000       0.00000000       0.00000000 </v>
   <v>       0.75000000       0.00000000       0.25000000 </v>
   <v>       0.75000000       0.00000000       0.50000000 </v>
   <v>       0.75000000       0.00000000       0.75000000 </v>
   <v>       0.75000000       0.25000000       0.00000000 </v>
   <v>       0.75000000       0.25000000       0.25000000 </v>
   <v>       0.75000000       0.25000000       0.50000000 </v>
   <v>       0.75000000       0.25000000       0.75000000 </v>
   <v>       0.75000000       0.50000000       0.00000000 </v>
   <v>       0.75000000       0.50000000       0.25000000 </v>
   <v>       0.75000000       0.50000000       0.50000000 </v>
   <v>       0.75000000       0.50000000       0.75000000 </v>
   <v>       0.75000000       0.75000000       0.00000000 </v>
   <v>       0.75000000       0.75000000       0.25000000 </v>
   <v>       0.75000000       0.75000000       0.50000000 </v>
   <v>       0.75000000       0.75000000       0.75000000 </v>
  </varray>
 </structure>
</modeling>
