 vasp.5.4.1 05Feb16 (build Oct 12 2016 17:31:35) complex                        
  
 executed on           IFC91_ompi date 2020.09.07  23:18:46
 running on    4 total cores
 distrk:  each k-point on    4 cores,    1 groups
 distr:  one band on NCORES_PER_BAND=   1 cores,    4 groups


--------------------------------------------------------------------------------------------------------


 INCAR:
 POTCAR:   PAW_PBE Ni_pv 06Sep2000                
 POTCAR:   PAW_PBE Ni_pv 06Sep2000                
  local pseudopotential read in
  partial core-charges read in
  atomic valenz-charges read in
  non local Contribution for L=           1  read in
    real space projection operators read in
  non local Contribution for L=           1  read in
    real space projection operators read in
  non local Contribution for L=           2  read in
    real space projection operators read in
  non local Contribution for L=           2  read in
    real space projection operators read in
  non local Contribution for L=           0  read in
    real space projection operators read in
  non local Contribution for L=           0  read in
    real space projection operators read in
    PAW grid and wavefunctions read in
 
   number of l-projection  operators is LMAX  =           6
   number of lm-projection operators is LMMAX =          18
 
 Optimization of the real space projectors (new method)

 maximal supplied QI-value         = 18.90
 optimisation between [QCUT,QGAM] = [ 10.96, 27.40] = [ 33.64,210.25] Ry 
 Optimized for a Real-space Cutoff    1.19 Angstroem

   l    n(q)    QCUT    max X(q) W(low)/X(q) W(high)/X(q)  e(spline) 
   1      9    10.960     3.231    0.64E-06    0.38E-05    0.29E-07
   1      9    10.960     4.241    0.27E-04    0.99E-05    0.15E-06
   2      9    10.960     3.566    0.37E-04    0.13E-04    0.55E-07
   2      9    10.960    20.429    0.20E-03    0.15E-04    0.28E-06
   0     10    10.960    19.799    0.13E-04    0.31E-05    0.11E-07
   0     10    10.960    52.283    0.57E-04    0.26E-04    0.65E-07
 PAW_PBE Ni_pv 06Sep2000                :
 energy of atom  1       EATOM=-3500.3496
 kinetic energy error for atom=    0.0894 (will be added to EATOM!!)
 
 
 POSCAR: Supercell by Yi Wang                    
  positions in direct lattice
  No initial velocities read in
 exchange correlation table for  LEXCH =        8
   RHO(1)=    0.500       N(1)  =     2000
   RHO(2)=  100.500       N(2)  =     4000
 


--------------------------------------------------------------------------------------------------------


 ion  position               nearest neighbor table
   1  0.000  0.000  0.000-
   2  0.000  0.000  0.250-
   3  0.000  0.000  0.500-
   4  0.000  0.000  0.750-
   5  0.000  0.250  0.000-
   6  0.000  0.250  0.250-
   7  0.000  0.250  0.500-
   8  0.000  0.250  0.750-
   9  0.000  0.500  0.000-
  10  0.000  0.500  0.250-
  11  0.000  0.500  0.500-
  12  0.000  0.500  0.750-
  13  0.000  0.750  0.000-
  14  0.000  0.750  0.250-
  15  0.000  0.750  0.500-
  16  0.000  0.750  0.750-
  17  0.250  0.000  0.000-
  18  0.250  0.000  0.250-
  19  0.250  0.000  0.500-
  20  0.250  0.000  0.750-
  21  0.250  0.250  0.000-
  22  0.250  0.250  0.250-
  23  0.250  0.250  0.500-
  24  0.250  0.250  0.750-
  25  0.250  0.500  0.000-
  26  0.250  0.500  0.250-
  27  0.250  0.500  0.500-
  28  0.250  0.500  0.750-
  29  0.250  0.750  0.000-
  30  0.250  0.750  0.250-
  31  0.250  0.750  0.500-
  32  0.250  0.750  0.750-
  33  0.500  0.000  0.000-
  34  0.500  0.000  0.250-
  35  0.500  0.000  0.500-
  36  0.500  0.000  0.750-
  37  0.500  0.250  0.000-
  38  0.500  0.250  0.250-
  39  0.500  0.250  0.500-
  40  0.500  0.250  0.750-
  41  0.500  0.500  0.000-
  42  0.500  0.500  0.250-
  43  0.500  0.500  0.500-
  44  0.500  0.500  0.750-
  45  0.500  0.750  0.000-
  46  0.500  0.750  0.250-
  47  0.500  0.750  0.500-
  48  0.500  0.750  0.750-
  49  0.750  0.000  0.000-
  50  0.750  0.000  0.250-
  51  0.750  0.000  0.500-
  52  0.750  0.000  0.750-
  53  0.750  0.250  0.000-
  54  0.750  0.250  0.250-
  55  0.750  0.250  0.500-
  56  0.750  0.250  0.750-
  57  0.750  0.500  0.000-
  58  0.750  0.500  0.250-
  59  0.750  0.500  0.500-
  60  0.750  0.500  0.750-
  61  0.750  0.750  0.000-
  62  0.750  0.750  0.250-
  63  0.750  0.750  0.500-
  64  0.750  0.750  0.750-
 
  LATTYP: Found a face centered cubic cell.
 ALAT       =    14.5230000000
  
  Lattice vectors:
  
 A1 = (   0.0000000000,   7.2615000000,   7.2615000000)
 A2 = (   7.2615000000,   0.0000000000,   7.2615000000)
 A3 = (   7.2615000000,   7.2615000000,   0.0000000000)


Analysis of symmetry for initial positions (statically):
=====================================================================
 Subroutine PRICEL returns following result:
 
  LATTYP: Found a face centered cubic cell.
 ALAT       =     3.6307500000
  
  Lattice vectors:
  
 A1 = (   0.0000000000,   1.8153750000,   1.8153750000)
 A2 = (   1.8153750000,   0.0000000000,   1.8153750000)
 A3 = (   1.8153750000,   1.8153750000,   0.0000000000)
 
  64 primitive cells build up your supercell.
 

 Routine SETGRP: Setting up the symmetry group for a 
 face centered cubic supercell.


 Subroutine GETGRP returns: Found 48 space group operations
 (whereof 48 operations were pure point group operations)
 out of a pool of 48 trial point group operations.


The static configuration has the point symmetry O_h .


Analysis of symmetry for dynamics (positions and initial velocities):
=====================================================================
 Subroutine PRICEL returns following result:
 
  LATTYP: Found a face centered cubic cell.
 ALAT       =     3.6307500000
  
  Lattice vectors:
  
 A1 = (   0.0000000000,   1.8153750000,   1.8153750000)
 A2 = (   1.8153750000,   0.0000000000,   1.8153750000)
 A3 = (   1.8153750000,   1.8153750000,   0.0000000000)
 
  64 primitive cells build up your supercell.
 

 Routine SETGRP: Setting up the symmetry group for a 
 face centered cubic supercell.


 Subroutine GETGRP returns: Found 48 space group operations
 (whereof 48 operations were pure point group operations)
 out of a pool of 48 trial point group operations.


The dynamic configuration has the point symmetry O_h .


Analysis of structural, dynamic, and magnetic symmetry:
=====================================================================
 Subroutine PRICEL returns following result:
 
  LATTYP: Found a face centered cubic cell.
 ALAT       =     3.6307500000
  
  Lattice vectors:
  
 A1 = (   0.0000000000,   1.8153750000,   1.8153750000)
 A2 = (   1.8153750000,   0.0000000000,   1.8153750000)
 A3 = (   1.8153750000,   1.8153750000,   0.0000000000)
 
  64 primitive cells build up your supercell.
 

 Routine SETGRP: Setting up the symmetry group for a 
 face centered cubic supercell.


 Subroutine GETGRP returns: Found 48 space group operations
 (whereof 48 operations were pure point group operations)
 out of a pool of 48 trial point group operations.


The magnetic configuration has the point symmetry O_h .


 Subroutine INISYM returns: Found 48 space group operations
 (whereof 48 operations are pure point group operations),
 and found    64 'primitive' translations

 
 
 KPOINTS: Zr 15x15x15                             

Automatic generation of k-mesh.
Space group operators:
 irot       det(A)        alpha          n_x          n_y          n_z        tau_x        tau_y        tau_z
    1     1.000000     0.000000     1.000000     0.000000     0.000000     0.000000     0.000000     0.000000
    2    -1.000000     0.000000     1.000000     0.000000     0.000000     0.000000     0.000000     0.000000
    3     1.000000   120.000000    -0.577350    -0.577350    -0.577350     0.000000     0.000000     0.000000
    4    -1.000000   120.000000    -0.577350    -0.577350    -0.577350     0.000000     0.000000     0.000000
    5     1.000000   120.000000     0.577350     0.577350     0.577350     0.000000     0.000000     0.000000
    6    -1.000000   120.000000     0.577350     0.577350     0.577350     0.000000     0.000000     0.000000
    7     1.000000    90.000000     0.000000     0.000000    -1.000000     0.000000     0.000000     0.000000
    8    -1.000000    90.000000     0.000000     0.000000    -1.000000     0.000000     0.000000     0.000000
    9     1.000000   180.000000     0.000000     0.707107     0.707107     0.000000     0.000000     0.000000
   10    -1.000000   180.000000     0.000000     0.707107     0.707107     0.000000     0.000000     0.000000
   11     1.000000    90.000000     0.000000     1.000000     0.000000     0.000000     0.000000     0.000000
   12    -1.000000    90.000000     0.000000     1.000000     0.000000     0.000000     0.000000     0.000000
   13     1.000000   180.000000     0.000000     0.000000     1.000000     0.000000     0.000000     0.000000
   14    -1.000000   180.000000     0.000000     0.000000     1.000000     0.000000     0.000000     0.000000
   15     1.000000   120.000000    -0.577350     0.577350     0.577350     0.000000     0.000000     0.000000
   16    -1.000000   120.000000    -0.577350     0.577350     0.577350     0.000000     0.000000     0.000000
   17     1.000000   120.000000    -0.577350     0.577350    -0.577350     0.000000     0.000000     0.000000
   18    -1.000000   120.000000    -0.577350     0.577350    -0.577350     0.000000     0.000000     0.000000
   19     1.000000    90.000000     0.000000     0.000000     1.000000     0.000000     0.000000     0.000000
   20    -1.000000    90.000000     0.000000     0.000000     1.000000     0.000000     0.000000     0.000000
   21     1.000000    90.000000    -1.000000     0.000000     0.000000     0.000000     0.000000     0.000000
   22    -1.000000    90.000000    -1.000000     0.000000     0.000000     0.000000     0.000000     0.000000
   23     1.000000   180.000000     0.707107     0.000000     0.707107     0.000000     0.000000     0.000000
   24    -1.000000   180.000000     0.707107     0.000000     0.707107     0.000000     0.000000     0.000000
   25     1.000000   120.000000     0.577350    -0.577350     0.577350     0.000000     0.000000     0.000000
   26    -1.000000   120.000000     0.577350    -0.577350     0.577350     0.000000     0.000000     0.000000
   27     1.000000   120.000000    -0.577350    -0.577350     0.577350     0.000000     0.000000     0.000000
   28    -1.000000   120.000000    -0.577350    -0.577350     0.577350     0.000000     0.000000     0.000000
   29     1.000000   180.000000     1.000000     0.000000     0.000000     0.000000     0.000000     0.000000
   30    -1.000000   180.000000     1.000000     0.000000     0.000000     0.000000     0.000000     0.000000
   31     1.000000    90.000000     0.000000    -1.000000     0.000000     0.000000     0.000000     0.000000
   32    -1.000000    90.000000     0.000000    -1.000000     0.000000     0.000000     0.000000     0.000000
   33     1.000000   180.000000     0.707107     0.707107     0.000000     0.000000     0.000000     0.000000
   34    -1.000000   180.000000     0.707107     0.707107     0.000000     0.000000     0.000000     0.000000
   35     1.000000    90.000000     1.000000     0.000000     0.000000     0.000000     0.000000     0.000000
   36    -1.000000    90.000000     1.000000     0.000000     0.000000     0.000000     0.000000     0.000000
   37     1.000000   120.000000     0.577350    -0.577350    -0.577350     0.000000     0.000000     0.000000
   38    -1.000000   120.000000     0.577350    -0.577350    -0.577350     0.000000     0.000000     0.000000
   39     1.000000   180.000000     0.000000     1.000000     0.000000     0.000000     0.000000     0.000000
   40    -1.000000   180.000000     0.000000     1.000000     0.000000     0.000000     0.000000     0.000000
   41     1.000000   120.000000     0.577350     0.577350    -0.577350     0.000000     0.000000     0.000000
   42    -1.000000   120.000000     0.577350     0.577350    -0.577350     0.000000     0.000000     0.000000
   43     1.000000   180.000000     0.000000    -0.707107     0.707107     0.000000     0.000000     0.000000
   44    -1.000000   180.000000     0.000000    -0.707107     0.707107     0.000000     0.000000     0.000000
   45     1.000000   180.000000     0.707107    -0.707107     0.000000     0.000000     0.000000     0.000000
   46    -1.000000   180.000000     0.707107    -0.707107     0.000000     0.000000     0.000000     0.000000
   47     1.000000   180.000000     0.707107     0.000000    -0.707107     0.000000     0.000000     0.000000
   48    -1.000000   180.000000     0.707107     0.000000    -0.707107     0.000000     0.000000     0.000000
 
 Subroutine IBZKPT returns following result:
 ===========================================
 
 Found      4 irreducible k-points:
 
 Following reciprocal coordinates:
            Coordinates               Weight
  0.000000  0.000000  0.000000      1.000000
  0.333333  0.000000  0.000000      8.000000
  0.333333  0.333333  0.000000      6.000000
 -0.333333  0.333333  0.000000     12.000000
 
 Following cartesian coordinates:
            Coordinates               Weight
  0.000000  0.000000  0.000000      1.000000
 -0.022952  0.022952  0.022952      8.000000
  0.000000  0.000000  0.045904      6.000000
  0.045904 -0.045904  0.000000     12.000000
 
 
 Subroutine IBZKPT_HF returns following result:
 ==============================================
 
 Found     27 k-points in 1st BZ
 the following     27 k-points will be used (e.g. in the exchange kernel)
 Following reciprocal coordinates:   # in IRBZ
  0.000000  0.000000  0.000000    0.03703704   1 t-inv F
  0.333333  0.000000  0.000000    0.03703704   2 t-inv F
  0.333333  0.333333  0.000000    0.03703704   3 t-inv F
 -0.333333  0.333333  0.000000    0.03703704   4 t-inv F
 -0.333333  0.000000  0.000000    0.03703704   2 t-inv F
  0.000000  0.333333  0.000000    0.03703704   2 t-inv F
  0.000000 -0.333333  0.000000    0.03703704   2 t-inv F
  0.000000  0.000000  0.333333    0.03703704   2 t-inv F
  0.000000  0.000000 -0.333333    0.03703704   2 t-inv F
  0.333333  0.333333  0.333333    0.03703704   2 t-inv F
 -0.333333 -0.333333 -0.333333    0.03703704   2 t-inv F
 -0.333333 -0.333333  0.000000    0.03703704   3 t-inv F
  0.000000  0.333333  0.333333    0.03703704   3 t-inv F
  0.000000 -0.333333 -0.333333    0.03703704   3 t-inv F
  0.333333  0.000000  0.333333    0.03703704   3 t-inv F
 -0.333333  0.000000 -0.333333    0.03703704   3 t-inv F
  0.333333 -0.333333  0.000000    0.03703704   4 t-inv F
  0.000000 -0.333333  0.333333    0.03703704   4 t-inv F
  0.000000  0.333333 -0.333333    0.03703704   4 t-inv F
  0.333333  0.000000 -0.333333    0.03703704   4 t-inv F
 -0.333333  0.000000  0.333333    0.03703704   4 t-inv F
  0.333333  0.333333  0.666667    0.03703704   4 t-inv F
 -0.333333 -0.333333 -0.666667    0.03703704   4 t-inv F
 -0.333333 -0.666667 -0.333333    0.03703704   4 t-inv F
  0.333333  0.666667  0.333333    0.03703704   4 t-inv F
 -0.666667 -0.333333 -0.333333    0.03703704   4 t-inv F
  0.666667  0.333333  0.333333    0.03703704   4 t-inv F


--------------------------------------------------------------------------------------------------------




 Dimension of arrays:
   k-points           NKPTS =      4   k-points in BZ     NKDIM =      4   number of bands    NBANDS=    648
   number of dos      NEDOS =    301   number of ions     NIONS =     64
   non local maximal  LDIM  =      6   non local SUM 2l+1 LMDIM =     18
   total plane-waves  NPLWV = 373248
   max r-space proj   IRMAX =   3525   max aug-charges    IRDMAX=   6426
   dimension x,y,z NGX =    72 NGY =   72 NGZ =   72
   dimension x,y,z NGXF=   120 NGYF=  120 NGZF=  120
   support grid    NGXF=   120 NGYF=  120 NGZF=  120
   ions per type =              64
 NGX,Y,Z   is equivalent  to a cutoff of  11.66, 11.66, 11.66 a.u.
 NGXF,Y,Z  is equivalent  to a cutoff of  19.43, 19.43, 19.43 a.u.


 I would recommend the setting:
   dimension x,y,z NGX =    72 NGY =   72 NGZ =   72
 SYSTEM =  phonon of Zr bcc - omiga                
 POSCAR =  Supercell by Yi Wang                    

 Startparameter for this run:
   NWRITE =      0    write-flag & timer
   PREC   = h         normal or accurate (medium, high low for compatibility)
   ISTART =      0    job   : 0-new  1-cont  2-samecut
   ICHARG =      2    charge: 1-file 2-atom 10-const
   ISPIN  =      2    spin polarized calculation?
   LNONCOLLINEAR =      F non collinear calculations
   LSORBIT =      F    spin-orbit coupling
   INIWAV =      1    electr: 0-lowe 1-rand  2-diag
   LASPH  =      F    aspherical Exc in radial PAW
   METAGGA=      F    non-selfconsistent MetaGGA calc.

 Electronic Relaxation 1
   ENCUT  =  459.9 eV  33.80 Ry    5.81 a.u.  17.96 17.96 17.96*2*pi/ulx,y,z
   ENINI  =  459.9     initial cutoff
   ENAUG  =  703.4 eV  augmentation charge cutoff
   NELM   =     60;   NELMIN=  2; NELMDL=  0     # of ELM steps 
   EDIFF  = 0.1E-05   stopping-criterion for ELM
   LREAL  =      T    real-space projection
   NLSPLINE    = F    spline interpolate recip. space projectors
   LCOMPAT=      F    compatible to vasp.4.4
   GGA_COMPAT  = T    GGA compatible to vasp.4.4-vasp.4.6
   LMAXPAW     = -100 max onsite density
   LMAXMIX     =    2 max onsite mixed and CHGCAR
   VOSKOWN=      0    Vosko Wilk Nusair interpolation
   ROPT   =   -0.00040
 Ionic relaxation
   EDIFFG = 0.1E-04   stopping-criterion for IOM
   NSW    =    805    number of steps for IOM
   NBLOCK =      1;   KBLOCK =      1    inner block; outer block 
   IBRION =      6    ionic relax: 0-MD 1-quasi-New 2-CG
   NFREE  =      2    steps in history (QN), initial steepest desc. (CG)
   ISIF   =      2    stress and relaxation
   IWAVPR =     11    prediction:  0-non 1-charg 2-wave 3-comb
   ISYM   =      2    0-nonsym 1-usesym 2-fastsym
   LCORR  =      T    Harris-Foulkes like correction to forces

   POTIM  = 0.5000    time-step for ionic-motion
   TEIN   =    0.0    initial temperature
   TEBEG  =    0.0;   TEEND  =   0.0 temperature during run
   SMASS  =  -3.00    Nose mass-parameter (am)
   estimated Nose-frequenzy (Omega)   =  0.10E-29 period in steps =****** mass=  -0.241E-26a.u.
   SCALEE = 1.0000    scale energy and forces
   NPACO  =    256;   APACO  = 16.0  distance and # of slots for P.C.
   PSTRESS=    0.0 pullay stress

  Mass of Ions in am
   POMASS =  58.69
  Ionic Valenz
   ZVAL   =  16.00
  Atomic Wigner-Seitz radii
   RWIGS  =  -1.00
  virtual crystal weights 
   VCA    =   1.00
   NELECT =    1024.0000    total number of electrons
   NUPDOWN=      -1.0000    fix difference up-down

 DOS related values:
   EMIN   =  10.00;   EMAX   =-10.00  energy-range for DOS
   EFERMI =   0.00
   ISMEAR =     1;   SIGMA  =   0.20  broadening in eV -4-tet -1-fermi 0-gaus

 Electronic relaxation 2 (details)
   IALGO  =     38    algorithm
   LDIAG  =      T    sub-space diagonalisation (order eigenvalues)
   LSUBROT=      F    optimize rotation matrix (better conditioning)
   TURBO    =      0    0=normal 1=particle mesh
   IRESTART =      0    0=no restart 2=restart with 2 vectors
   NREBOOT  =      0    no. of reboots
   NMIN     =      0    reboot dimension
   EREF     =   0.00    reference energy to select bands
   IMIX   =      4    mixing-type and parameters
     AMIX     =   0.40;   BMIX     =  1.00
     AMIX_MAG =   1.60;   BMIX_MAG =  1.00
     AMIN     =   0.10
     WC   =   100.;   INIMIX=   1;  MIXPRE=   1;  MAXMIX= -45

 Intra band minimization:
   WEIMIN = 0.0010     energy-eigenvalue tresh-hold
   EBREAK =  0.39E-09  absolut break condition
   DEPER  =   0.30     relativ break condition  

   TIME   =   0.40     timestep for ELM

  volume/ion in A,a.u.               =      11.97        80.75
  Fermi-wavevector in a.u.,A,eV,Ry     =   1.803593  3.408296 44.259027  3.252947
  Thomas-Fermi vector in A             =   2.863671
 
 Write flags
   LWAVE  =      T    write WAVECAR
   LCHARG =      T    write CHGCAR
   LVTOT  =      F    write LOCPOT, total local potential
   LVHAR  =      F    write LOCPOT, Hartree potential only
   LELF   =      F    write electronic localiz. function (ELF)
   LORBIT =      0    0 simple, 1 ext, 2 COOP (PROOUT)


 Dipole corrections
   LMONO  =      F    monopole corrections only (constant potential shift)
   LDIPOL =      F    correct potential (dipole corrections)
   IDIPOL =      0    1-x, 2-y, 3-z, 4-all directions 
   EPSILON=  1.0000000 bulk dielectric constant

 Exchange correlation treatment:
   GGA     =    --    GGA type
   LEXCH   =     8    internal setting for exchange type
   VOSKOWN=      0    Vosko Wilk Nusair interpolation
   LHFCALC =     F    Hartree Fock is set to
   LHFONE  =     F    Hartree Fock one center treatment
   AEXX    =    0.0000 exact exchange contribution

 Linear response parameters
   LEPSILON=     F    determine dielectric tensor
   LRPA    =     F    only Hartree local field effects (RPA)
   LNABLA  =     F    use nabla operator in PAW spheres
   LVEL    =     F    velocity operator in full k-point grid
   LINTERFAST=   F  fast interpolation
   KINTER  =     0    interpolate to denser k-point grid
   CSHIFT  =0.1000    complex shift for real part using Kramers Kronig
   OMEGAMAX=  -1.0    maximum frequency
   DEG_THRESHOLD= 0.2000000E-02 threshold for treating states as degnerate
   RTIME   =    0.100 relaxation time in fs

 Orbital magnetization related:
   ORBITALMAG=     F  switch on orbital magnetization
   LCHIMAG   =     F  perturbation theory with respect to B field
   DQ        =  0.001000  dq finite difference perturbation B field



--------------------------------------------------------------------------------------------------------


 finite differences with symmetry
 charge density and potential will be updated during run
 spin polarized calculation
 Variant of blocked Davidson
 Davidson routine will perform the subspace rotation
 perform sub-space diagonalisation
    after iterative eigenvector-optimisation
 modified Broyden-mixing scheme, WC =      100.0
 initial mixing is a Kerker type mixing with AMIX =  0.4000 and BMIX =      1.0000
 Hartree-type preconditioning will be used
 using additional bands          136
 real space projection scheme for non local part
 use partial core corrections
 calculate Harris-corrections to forces 
   (improved forces if not selfconsistent)
 use gradient corrections 
 use of overlap-Matrix (Vanderbilt PP)
 Methfessel and Paxton  Order N= 1 SIGMA  =   0.20


--------------------------------------------------------------------------------------------------------


  energy-cutoff  :      459.93
  volume of cell :      765.79
      direct lattice vectors                 reciprocal lattice vectors
     0.000000000  7.261500000  7.261500000    -0.068856297  0.068856297  0.068856297
     7.261500000  0.000000000  7.261500000     0.068856297 -0.068856297  0.068856297
     7.261500000  7.261500000  0.000000000     0.068856297  0.068856297 -0.068856297

  length of vectors
    10.269311783 10.269311783 10.269311783     0.119262605  0.119262605  0.119262605


 
 k-points in units of 2pi/SCALE and weight: Zr 15x15x15                             
   0.00000000  0.00000000  0.00000000       0.037
  -0.02295210  0.02295210  0.02295210       0.296
   0.00000000  0.00000000  0.04590420       0.222
   0.04590420 -0.04590420  0.00000000       0.444
 
 k-points in reciprocal lattice and weights: Zr 15x15x15                             
   0.00000000  0.00000000  0.00000000       0.037
   0.33333333  0.00000000  0.00000000       0.296
   0.33333333  0.33333333  0.00000000       0.222
  -0.33333333  0.33333333  0.00000000       0.444
 
 position of ions in fractional coordinates (direct lattice) 
   0.00000000  0.00000000  0.00000000
   0.00000000  0.00000000  0.25000000
   0.00000000  0.00000000  0.50000000
   0.00000000  0.00000000  0.75000000
   0.00000000  0.25000000  0.00000000
   0.00000000  0.25000000  0.25000000
   0.00000000  0.25000000  0.50000000
   0.00000000  0.25000000  0.75000000
   0.00000000  0.50000000  0.00000000
   0.00000000  0.50000000  0.25000000
   0.00000000  0.50000000  0.50000000
   0.00000000  0.50000000  0.75000000
   0.00000000  0.75000000  0.00000000
   0.00000000  0.75000000  0.25000000
   0.00000000  0.75000000  0.50000000
   0.00000000  0.75000000  0.75000000
   0.25000000  0.00000000  0.00000000
   0.25000000  0.00000000  0.25000000
   0.25000000  0.00000000  0.50000000
   0.25000000  0.00000000  0.75000000
   0.25000000  0.25000000  0.00000000
   0.25000000  0.25000000  0.25000000
   0.25000000  0.25000000  0.50000000
   0.25000000  0.25000000  0.75000000
   0.25000000  0.50000000  0.00000000
   0.25000000  0.50000000  0.25000000
   0.25000000  0.50000000  0.50000000
   0.25000000  0.50000000  0.75000000
   0.25000000  0.75000000  0.00000000
   0.25000000  0.75000000  0.25000000
   0.25000000  0.75000000  0.50000000
   0.25000000  0.75000000  0.75000000
   0.50000000  0.00000000  0.00000000
   0.50000000  0.00000000  0.25000000
   0.50000000  0.00000000  0.50000000
   0.50000000  0.00000000  0.75000000
   0.50000000  0.25000000  0.00000000
   0.50000000  0.25000000  0.25000000
   0.50000000  0.25000000  0.50000000
   0.50000000  0.25000000  0.75000000
   0.50000000  0.50000000  0.00000000
   0.50000000  0.50000000  0.25000000
   0.50000000  0.50000000  0.50000000
   0.50000000  0.50000000  0.75000000
   0.50000000  0.75000000  0.00000000
   0.50000000  0.75000000  0.25000000
   0.50000000  0.75000000  0.50000000
   0.50000000  0.75000000  0.75000000
   0.75000000  0.00000000  0.00000000
   0.75000000  0.00000000  0.25000000
   0.75000000  0.00000000  0.50000000
   0.75000000  0.00000000  0.75000000
   0.75000000  0.25000000  0.00000000
   0.75000000  0.25000000  0.25000000
   0.75000000  0.25000000  0.50000000
   0.75000000  0.25000000  0.75000000
   0.75000000  0.50000000  0.00000000
   0.75000000  0.50000000  0.25000000
   0.75000000  0.50000000  0.50000000
   0.75000000  0.50000000  0.75000000
   0.75000000  0.75000000  0.00000000
   0.75000000  0.75000000  0.25000000
   0.75000000  0.75000000  0.50000000
   0.75000000  0.75000000  0.75000000
 
 position of ions in cartesian coordinates  (Angst):
   0.00000000  0.00000000  0.00000000
   1.81537500  1.81537500  0.00000000
   3.63075000  3.63075000  0.00000000
   5.44612500  5.44612500  0.00000000
   1.81537500  0.00000000  1.81537500
   3.63075000  1.81537500  1.81537500
   5.44612500  3.63075000  1.81537500
   7.26150000  5.44612500  1.81537500
   3.63075000  0.00000000  3.63075000
   5.44612500  1.81537500  3.63075000
   7.26150000  3.63075000  3.63075000
   9.07687500  5.44612500  3.63075000
   5.44612500  0.00000000  5.44612500
   7.26150000  1.81537500  5.44612500
   9.07687500  3.63075000  5.44612500
  10.89225000  5.44612500  5.44612500
   0.00000000  1.81537500  1.81537500
   1.81537500  3.63075000  1.81537500
   3.63075000  5.44612500  1.81537500
   5.44612500  7.26150000  1.81537500
   1.81537500  1.81537500  3.63075000
   3.63075000  3.63075000  3.63075000
   5.44612500  5.44612500  3.63075000
   7.26150000  7.26150000  3.63075000
   3.63075000  1.81537500  5.44612500
   5.44612500  3.63075000  5.44612500
   7.26150000  5.44612500  5.44612500
   9.07687500  7.26150000  5.44612500
   5.44612500  1.81537500  7.26150000
   7.26150000  3.63075000  7.26150000
   9.07687500  5.44612500  7.26150000
  10.89225000  7.26150000  7.26150000
   0.00000000  3.63075000  3.63075000
   1.81537500  5.44612500  3.63075000
   3.63075000  7.26150000  3.63075000
   5.44612500  9.07687500  3.63075000
   1.81537500  3.63075000  5.44612500
   3.63075000  5.44612500  5.44612500
   5.44612500  7.26150000  5.44612500
   7.26150000  9.07687500  5.44612500
   3.63075000  3.63075000  7.26150000
   5.44612500  5.44612500  7.26150000
   7.26150000  7.26150000  7.26150000
   9.07687500  9.07687500  7.26150000
   5.44612500  3.63075000  9.07687500
   7.26150000  5.44612500  9.07687500
   9.07687500  7.26150000  9.07687500
  10.89225000  9.07687500  9.07687500
   0.00000000  5.44612500  5.44612500
   1.81537500  7.26150000  5.44612500
   3.63075000  9.07687500  5.44612500
   5.44612500 10.89225000  5.44612500
   1.81537500  5.44612500  7.26150000
   3.63075000  7.26150000  7.26150000
   5.44612500  9.07687500  7.26150000
   7.26150000 10.89225000  7.26150000
   3.63075000  5.44612500  9.07687500
   5.44612500  7.26150000  9.07687500
   7.26150000  9.07687500  9.07687500
   9.07687500 10.89225000  9.07687500
   5.44612500  5.44612500 10.89225000
   7.26150000  7.26150000 10.89225000
   9.07687500  9.07687500 10.89225000
  10.89225000 10.89225000 10.89225000
 


--------------------------------------------------------------------------------------------------------


 k-point  1 :   0.0000 0.0000 0.0000  plane waves:   17153
 k-point  2 :   0.3333 0.0000 0.0000  plane waves:   17156
 k-point  3 :   0.3333 0.3333 0.0000  plane waves:   17174
 k-point  4 :  -0.3333 0.3333 0.0000  plane waves:   17170

 maximum and minimum number of plane-waves per node :     17174    17153

 maximum number of plane-waves:     17174
 maximum index in each direction: 
   IXMAX=   18   IYMAX=   17   IZMAX=   17
   IXMIN=  -18   IYMIN=  -18   IZMIN=  -17

 WARNING: aliasing errors must be expected set NGX to  74 to avoid them
 NGY is ok and might be reduce to  72
 NGZ is ok and might be reduce to  70
 aliasing errors are usually negligible using standard VASP settings
 and one can safely disregard these warnings

 serial   3D FFT for wavefunctions
 parallel 3D FFT for charge:
    minimum data exchange during FFTs selected (reduces bandwidth)


 total amount of memory used by VASP on root node   528226. kBytes
========================================================================

   base      :      30000. kBytes
   nonlr-proj:      37924. kBytes
   fftplans  :      16731. kBytes
   grid      :      61532. kBytes
   one-center:       1990. kBytes
   wavefun   :     380049. kBytes
 
     INWAV:  cpu time    0.0010: real time    0.0000
 Broyden mixing: mesh for mixing (old mesh)
   NGX = 35   NGY = 35   NGZ = 35
  (NGX  =120   NGY  =120   NGZ  =120)
  gives a total of  42875 points

 initial charge density was supplied:
 charge density of overlapping atoms calculated
 number of electron    1024.0000000 magnetization      64.0000000
 keeping initial charge density in first step


--------------------------------------------------------------------------------------------------------


 Maximum index for non-local projection operator         3367
 Maximum index for augmentation-charges         1532 (set IRDMAX)


--------------------------------------------------------------------------------------------------------


 First call to EWALD:  gamma=   0.194
 Maximum number of real-space cells 3x 3x 3
 Maximum number of reciprocal cells 3x 3x 3

 FEWALD executed in parallel
    FEWALD:  cpu time    0.0070: real time    0.0068


----------------------------------------- Iteration    1(   1)  ---------------------------------------


    POTLOK:  cpu time    0.4999: real time    0.4984
    SETDIJ:  cpu time    0.0890: real time    0.0890
     EDDAV:  cpu time  157.0171: real time  156.8881
       DOS:  cpu time    0.0040: real time    0.0037
    --------------------------------------------
      LOOP:  cpu time  157.6100: real time  157.4821

 eigenvalue-minimisations  : 11720
 total energy-change (2. order) : 0.1560204E+05  (-0.6079355E+05)
 number of electron    1024.0000000 magnetization      64.0000000
 augmentation part     1024.0000000 magnetization      64.0000000

 Free energy of the ion-electron system (eV)
  ---------------------------------------------------
  alpha Z        PSCENC =      9010.57505126
  Ewald energy   TEWEN  =   -148962.18054694
  -Hartree energ DENC   =    -64548.20625032
  -exchange      EXHF   =         0.00000000
  -V(xc)+E(xc)   XCENC  =      5698.56874546
  PAW double counting   =    172361.15642774  -181272.45834873
  entropy T*S    EENTRO =        -0.01332885
  eigenvalues    EBANDS =      -702.04900264
  atomic energy  EATOM  =    224016.65216645
  Solvation  Ediel_sol  =         0.00000000
  ---------------------------------------------------
  free energy    TOTEN  =     15602.04491343 eV

  energy without entropy =    15602.05824228  energy(sigma->0) =    15602.04935638


--------------------------------------------------------------------------------------------------------




----------------------------------------- Iteration    1(   2)  ---------------------------------------


     EDDAV:  cpu time  143.5982: real time  143.4806
       DOS:  cpu time    0.0040: real time    0.0039
    --------------------------------------------
      LOOP:  cpu time  143.6022: real time  143.4859

 eigenvalue-minimisations  : 10368
 total energy-change (2. order) :-0.1455371E+05  (-0.1414752E+05)
 number of electron    1024.0000000 magnetization      64.0000000
 augmentation part     1024.0000000 magnetization      64.0000000

 Free energy of the ion-electron system (eV)
  ---------------------------------------------------
  alpha Z        PSCENC =      9010.57505126
  Ewald energy   TEWEN  =   -148962.18054694
  -Hartree energ DENC   =    -64548.20625032
  -exchange      EXHF   =         0.00000000
  -V(xc)+E(xc)   XCENC  =      5698.56874546
  PAW double counting   =    172361.15642774  -181272.45834873
  entropy T*S    EENTRO =        -0.00912191
  eigenvalues    EBANDS =    -15255.76546422
  atomic energy  EATOM  =    224016.65216645
  Solvation  Ediel_sol  =         0.00000000
  ---------------------------------------------------
  free energy    TOTEN  =      1048.33265879 eV

  energy without entropy =     1048.34178070  energy(sigma->0) =     1048.33569943


--------------------------------------------------------------------------------------------------------




----------------------------------------- Iteration    1(   3)  ---------------------------------------


     EDDAV:  cpu time  145.4839: real time  145.3649
       DOS:  cpu time    0.0040: real time    0.0043
    --------------------------------------------
      LOOP:  cpu time  145.4879: real time  145.3698

 eigenvalue-minimisations  : 10528
 total energy-change (2. order) :-0.1395343E+04  (-0.1164751E+04)
 number of electron    1024.0000000 magnetization      64.0000000
 augmentation part     1024.0000000 magnetization      64.0000000

 Free energy of the ion-electron system (eV)
  ---------------------------------------------------
  alpha Z        PSCENC =      9010.57505126
  Ewald energy   TEWEN  =   -148962.18054694
  -Hartree energ DENC   =    -64548.20625032
  -exchange      EXHF   =         0.00000000
  -V(xc)+E(xc)   XCENC  =      5698.56874546
  PAW double counting   =    172361.15642774  -181272.45834873
  entropy T*S    EENTRO =         0.19043765
  eigenvalues    EBANDS =    -16651.30752875
  atomic energy  EATOM  =    224016.65216645
  Solvation  Ediel_sol  =         0.00000000
  ---------------------------------------------------
  free energy    TOTEN  =      -347.00984618 eV

  energy without entropy =     -347.20028383  energy(sigma->0) =     -347.07332540


--------------------------------------------------------------------------------------------------------




----------------------------------------- Iteration    1(   4)  ---------------------------------------


     EDDAV:  cpu time  150.7971: real time  150.6733
       DOS:  cpu time    0.0050: real time    0.0043
    --------------------------------------------
      LOOP:  cpu time  150.8031: real time  150.6781

 eigenvalue-minimisations  : 11120
 total energy-change (2. order) :-0.8131318E+02  (-0.7873823E+02)
 number of electron    1024.0000000 magnetization      64.0000000
 augmentation part     1024.0000000 magnetization      64.0000000

 Free energy of the ion-electron system (eV)
  ---------------------------------------------------
  alpha Z        PSCENC =      9010.57505126
  Ewald energy   TEWEN  =   -148962.18054694
  -Hartree energ DENC   =    -64548.20625032
  -exchange      EXHF   =         0.00000000
  -V(xc)+E(xc)   XCENC  =      5698.56874546
  PAW double counting   =    172361.15642774  -181272.45834873
  entropy T*S    EENTRO =         0.18230931
  eigenvalues    EBANDS =    -16732.61258364
  atomic energy  EATOM  =    224016.65216645
  Solvation  Ediel_sol  =         0.00000000
  ---------------------------------------------------
  free energy    TOTEN  =      -428.32302941 eV

  energy without entropy =     -428.50533872  energy(sigma->0) =     -428.38379918


--------------------------------------------------------------------------------------------------------




----------------------------------------- Iteration    1(   5)  ---------------------------------------


     EDDAV:  cpu time  150.0732: real time  149.9501
       DOS:  cpu time    0.0030: real time    0.0042
    CHARGE:  cpu time    8.1548: real time    8.1478
    MIXING:  cpu time    0.0110: real time    0.0100
    --------------------------------------------
      LOOP:  cpu time  158.2419: real time  158.1128

 eigenvalue-minimisations  : 11056
 total energy-change (2. order) :-0.1384609E+01  (-0.1382738E+01)
 number of electron    1024.0007745 magnetization      58.2654000
 augmentation part      573.0346215 magnetization      46.6267621

 Broyden mixing:
  rms(total) = 0.67844E+01    rms(broyden)= 0.67819E+01
  rms(prec ) = 0.91838E+01
  weight for this iteration     100.00

 Free energy of the ion-electron system (eV)
  ---------------------------------------------------
  alpha Z        PSCENC =      9010.57505126
  Ewald energy   TEWEN  =   -148962.18054694
  -Hartree energ DENC   =    -64548.20625032
  -exchange      EXHF   =         0.00000000
  -V(xc)+E(xc)   XCENC  =      5698.56874546
  PAW double counting   =    172361.15642774  -181272.45834873
  entropy T*S    EENTRO =         0.18216627
  eigenvalues    EBANDS =    -16733.99704921
  atomic energy  EATOM  =    224016.65216645
  Solvation  Ediel_sol  =         0.00000000
  ---------------------------------------------------
  free energy    TOTEN  =      -429.70763802 eV

  energy without entropy =     -429.88980429  energy(sigma->0) =     -429.76836011


--------------------------------------------------------------------------------------------------------




----------------------------------------- Iteration    1(   6)  ---------------------------------------


    POTLOK:  cpu time    0.4979: real time    0.4975
    SETDIJ:  cpu time    0.0890: real time    0.0891
     EDDAV:  cpu time  149.2133: real time  149.0910
       DOS:  cpu time    0.0050: real time    0.0042
    CHARGE:  cpu time    7.8678: real time    7.8622
    MIXING:  cpu time    0.0120: real time    0.0107
    --------------------------------------------
      LOOP:  cpu time  157.6850: real time  157.5554

 eigenvalue-minimisations  : 10896
 total energy-change (2. order) : 0.2735979E+02  (-0.6474806E+02)
 number of electron    1024.0008593 magnetization      52.2354949
 augmentation part      633.1059342 magnetization      46.3817225

 Broyden mixing:
  rms(total) = 0.54739E+01    rms(broyden)= 0.54733E+01
  rms(prec ) = 0.68720E+01
  weight for this iteration     100.00

 eigenvalues of (default mixing * dielectric matrix)
  average eigenvalue GAMMA=   0.5352
  0.5352

 Free energy of the ion-electron system (eV)
  ---------------------------------------------------
  alpha Z        PSCENC =      9010.57505126
  Ewald energy   TEWEN  =   -148962.18054694
  -Hartree energ DENC   =    -61244.30049956
  -exchange      EXHF   =         0.00000000
  -V(xc)+E(xc)   XCENC  =      5573.06561664
  PAW double counting   =    167373.75470300  -175961.89934610
  entropy T*S    EENTRO =        -0.44509313
  eigenvalues    EBANDS =    -20207.56989900
  atomic energy  EATOM  =    224016.65216645
  Solvation  Ediel_sol  =         0.00000000
  ---------------------------------------------------
  free energy    TOTEN  =      -402.34784737 eV

  energy without entropy =     -401.90275424  energy(sigma->0) =     -402.19948299


--------------------------------------------------------------------------------------------------------




----------------------------------------- Iteration    1(   7)  ---------------------------------------


    POTLOK:  cpu time    0.4969: real time    0.4970
    SETDIJ:  cpu time    0.0890: real time    0.0890
     EDDAV:  cpu time  148.6954: real time  148.5728
       DOS:  cpu time    0.0030: real time    0.0041
    CHARGE:  cpu time    8.0038: real time    7.9974
    MIXING:  cpu time    0.0110: real time    0.0113
    --------------------------------------------
      LOOP:  cpu time  157.3001: real time  157.1722

 eigenvalue-minimisations  : 10824
 total energy-change (2. order) : 0.3512108E+02  (-0.1389937E+02)
 number of electron    1024.0008216 magnetization      47.7647939
 augmentation part      606.4955136 magnetization      39.1838986

 Broyden mixing:
  rms(total) = 0.61462E+00    rms(broyden)= 0.61405E+00
  rms(prec ) = 0.72844E+00
  weight for this iteration     100.00

 eigenvalues of (default mixing * dielectric matrix)
  average eigenvalue GAMMA=   0.7148
  0.8661  0.5635

 Free energy of the ion-electron system (eV)
  ---------------------------------------------------
  alpha Z        PSCENC =      9010.57505126
  Ewald energy   TEWEN  =   -148962.18054694
  -Hartree energ DENC   =    -62501.35559781
  -exchange      EXHF   =         0.00000000
  -V(xc)+E(xc)   XCENC  =      5620.19574194
  PAW double counting   =    169959.89844009  -178836.60041769
  entropy T*S    EENTRO =        -0.03034362
  eigenvalues    EBANDS =    -18674.38126558
  atomic energy  EATOM  =    224016.65216645
  Solvation  Ediel_sol  =         0.00000000
  ---------------------------------------------------
  free energy    TOTEN  =      -367.22677190 eV

  energy without entropy =     -367.19642828  energy(sigma->0) =     -367.21665736


--------------------------------------------------------------------------------------------------------




----------------------------------------- Iteration    1(   8)  ---------------------------------------


    POTLOK:  cpu time    0.4959: real time    0.4966
    SETDIJ:  cpu time    0.0900: real time    0.0890
     EDDAV:  cpu time  150.7781: real time  150.6552
       DOS:  cpu time    0.0040: real time    0.0040
    CHARGE:  cpu time    7.9418: real time    7.9343
    MIXING:  cpu time    0.0120: real time    0.0120
    --------------------------------------------
      LOOP:  cpu time  159.3228: real time  159.1919

 eigenvalue-minimisations  : 11056
 total energy-change (2. order) :-0.1110818E+00  (-0.1461748E+00)
 number of electron    1024.0008210 magnetization      44.6471057
 augmentation part      606.0413127 magnetization      37.4338811

 Broyden mixing:
  rms(total) = 0.31924E+00    rms(broyden)= 0.31919E+00
  rms(prec ) = 0.42195E+00
  weight for this iteration     100.00

 eigenvalues of (default mixing * dielectric matrix)
  average eigenvalue GAMMA=   1.1210
  0.5741  0.8631  1.9258

 Free energy of the ion-electron system (eV)
  ---------------------------------------------------
  alpha Z        PSCENC =      9010.57505126
  Ewald energy   TEWEN  =   -148962.18054694
  -Hartree energ DENC   =    -62386.08000617
  -exchange      EXHF   =         0.00000000
  -V(xc)+E(xc)   XCENC  =      5617.00551107
  PAW double counting   =    170380.87111494  -179346.86525058
  entropy T*S    EENTRO =        -0.01812191
  eigenvalues    EBANDS =    -18697.29777184
  atomic energy  EATOM  =    224016.65216645
  Solvation  Ediel_sol  =         0.00000000
  ---------------------------------------------------
  free energy    TOTEN  =      -367.33785372 eV

  energy without entropy =     -367.31973181  energy(sigma->0) =     -367.33181309


--------------------------------------------------------------------------------------------------------




----------------------------------------- Iteration    1(   9)  ---------------------------------------


    POTLOK:  cpu time    0.4969: real time    0.4963
    SETDIJ:  cpu time    0.0890: real time    0.0890
     EDDAV:  cpu time  154.5515: real time  154.4243
       DOS:  cpu time    0.0030: real time    0.0043
    CHARGE:  cpu time    7.9318: real time    7.9249
    MIXING:  cpu time    0.0140: real time    0.0128
    --------------------------------------------
      LOOP:  cpu time  163.0862: real time  162.9523

 eigenvalue-minimisations  : 11376
 total energy-change (2. order) : 0.1462154E+00  (-0.2857062E-01)
 number of electron    1024.0008222 magnetization      44.8491662
 augmentation part      606.8725461 magnetization      38.5957151

 Broyden mixing:
  rms(total) = 0.79701E-01    rms(broyden)= 0.79680E-01
  rms(prec ) = 0.82298E-01
  weight for this iteration     100.00

 eigenvalues of (default mixing * dielectric matrix)
  average eigenvalue GAMMA=   1.0800
  2.2081  0.9034  0.5840  0.6244

 Free energy of the ion-electron system (eV)
  ---------------------------------------------------
  alpha Z        PSCENC =      9010.57505126
  Ewald energy   TEWEN  =   -148962.18054694
  -Hartree energ DENC   =    -62226.75072833
  -exchange      EXHF   =         0.00000000
  -V(xc)+E(xc)   XCENC  =      5612.06368726
  PAW double counting   =    170748.68568954  -179789.39827844
  entropy T*S    EENTRO =        -0.02631150
  eigenvalues    EBANDS =    -18776.81236763
  atomic energy  EATOM  =    224016.65216645
  Solvation  Ediel_sol  =         0.00000000
  ---------------------------------------------------
  free energy    TOTEN  =      -367.19163833 eV

  energy without entropy =     -367.16532683  energy(sigma->0) =     -367.18286783


--------------------------------------------------------------------------------------------------------




----------------------------------------- Iteration    1(  10)  ---------------------------------------


    POTLOK:  cpu time    0.4969: real time    0.4965
    SETDIJ:  cpu time    0.0890: real time    0.0889
     EDDAV:  cpu time  159.1598: real time  159.0298
       DOS:  cpu time    0.0040: real time    0.0041
    CHARGE:  cpu time    7.9278: real time    7.9214
    MIXING:  cpu time    0.0130: real time    0.0138
    --------------------------------------------
      LOOP:  cpu time  167.6915: real time  167.5552

 eigenvalue-minimisations  : 11800
 total energy-change (2. order) :-0.6650664E-02  (-0.1572438E-02)
 number of electron    1024.0008222 magnetization      45.4099911
 augmentation part      606.8529982 magnetization      39.0771118

 Broyden mixing:
  rms(total) = 0.35521E-01    rms(broyden)= 0.35513E-01
  rms(prec ) = 0.36899E-01
  weight for this iteration     100.00

 eigenvalues of (default mixing * dielectric matrix)
  average eigenvalue GAMMA=   1.2179
  2.3165  1.6076  0.9692  0.6163  0.5800

 Free energy of the ion-electron system (eV)
  ---------------------------------------------------
  alpha Z        PSCENC =      9010.57505126
  Ewald energy   TEWEN  =   -148962.18054694
  -Hartree energ DENC   =    -62219.52642743
  -exchange      EXHF   =         0.00000000
  -V(xc)+E(xc)   XCENC  =      5611.88244852
  PAW double counting   =    170827.41826982  -179873.99267269
  entropy T*S    EENTRO =        -0.02591542
  eigenvalues    EBANDS =    -18778.00066256
  atomic energy  EATOM  =    224016.65216645
  Solvation  Ediel_sol  =         0.00000000
  ---------------------------------------------------
  free energy    TOTEN  =      -367.19828899 eV

  energy without entropy =     -367.17237357  energy(sigma->0) =     -367.18965052


--------------------------------------------------------------------------------------------------------




----------------------------------------- Iteration    1(  11)  ---------------------------------------


    POTLOK:  cpu time    0.4959: real time    0.4965
    SETDIJ:  cpu time    0.0900: real time    0.0891
     EDDAV:  cpu time  150.4541: real time  150.3301
       DOS:  cpu time    0.0040: real time    0.0047
    CHARGE:  cpu time    8.0048: real time    7.9973
    MIXING:  cpu time    0.0140: real time    0.0147
    --------------------------------------------
      LOOP:  cpu time  159.0638: real time  158.9331

 eigenvalue-minimisations  : 11000
 total energy-change (2. order) :-0.4417127E-02  (-0.8508423E-03)
 number of electron    1024.0008220 magnetization      45.4295754
 augmentation part      606.7551491 magnetization      38.9220215

 Broyden mixing:
  rms(total) = 0.12028E-01    rms(broyden)= 0.12019E-01
  rms(prec ) = 0.15168E-01
  weight for this iteration     100.00

 eigenvalues of (default mixing * dielectric matrix)
  average eigenvalue GAMMA=   1.1766
  2.3987  1.7523  0.9753  0.5731  0.7189  0.6414

 Free energy of the ion-electron system (eV)
  ---------------------------------------------------
  alpha Z        PSCENC =      9010.57505126
  Ewald energy   TEWEN  =   -148962.18054694
  -Hartree energ DENC   =    -62222.06453052
  -exchange      EXHF   =         0.00000000
  -V(xc)+E(xc)   XCENC  =      5611.95642794
  PAW double counting   =    170932.22515177  -179980.88675188
  entropy T*S    EENTRO =        -0.02505431
  eigenvalues    EBANDS =    -18773.45461990
  atomic energy  EATOM  =    224016.65216645
  Solvation  Ediel_sol  =         0.00000000
  ---------------------------------------------------
  free energy    TOTEN  =      -367.20270612 eV

  energy without entropy =     -367.17765181  energy(sigma->0) =     -367.19435468


--------------------------------------------------------------------------------------------------------




----------------------------------------- Iteration    1(  12)  ---------------------------------------


    POTLOK:  cpu time    0.4979: real time    0.4986
    SETDIJ:  cpu time    0.0900: real time    0.0890
     EDDAV:  cpu time  149.9652: real time  149.8420
       DOS:  cpu time    0.0040: real time    0.0046
    CHARGE:  cpu time    7.9948: real time    7.9881
    MIXING:  cpu time    0.0160: real time    0.0156
    --------------------------------------------
      LOOP:  cpu time  158.5689: real time  158.4386

 eigenvalue-minimisations  : 10984
 total energy-change (2. order) :-0.2532080E-04  (-0.8767138E-04)
 number of electron    1024.0008221 magnetization      45.4247673
 augmentation part      606.8067877 magnetization      38.9114102

 Broyden mixing:
  rms(total) = 0.23533E-02    rms(broyden)= 0.23453E-02
  rms(prec ) = 0.24928E-02
  weight for this iteration     100.00

 eigenvalues of (default mixing * dielectric matrix)
  average eigenvalue GAMMA=   1.1776
  2.4338  1.7881  1.1560  0.9342  0.5748  0.6275  0.7291

 Free energy of the ion-electron system (eV)
  ---------------------------------------------------
  alpha Z        PSCENC =      9010.57505126
  Ewald energy   TEWEN  =   -148962.18054694
  -Hartree energ DENC   =    -62219.07058267
  -exchange      EXHF   =         0.00000000
  -V(xc)+E(xc)   XCENC  =      5611.84106572
  PAW double counting   =    170948.03244868  -179996.39454456
  entropy T*S    EENTRO =        -0.02635342
  eigenvalues    EBANDS =    -18776.63143595
  atomic energy  EATOM  =    224016.65216645
  Solvation  Ediel_sol  =         0.00000000
  ---------------------------------------------------
  free energy    TOTEN  =      -367.20273144 eV

  energy without entropy =     -367.17637801  energy(sigma->0) =     -367.19394696


--------------------------------------------------------------------------------------------------------




----------------------------------------- Iteration    1(  13)  ---------------------------------------


    POTLOK:  cpu time    0.4979: real time    0.4972
    SETDIJ:  cpu time    0.0890: real time    0.0889
     EDDAV:  cpu time  152.5038: real time  152.3787
       DOS:  cpu time    0.0040: real time    0.0046
    CHARGE:  cpu time    7.9918: real time    7.9853
    MIXING:  cpu time    0.0180: real time    0.0169
    --------------------------------------------
      LOOP:  cpu time  161.1045: real time  160.9724

 eigenvalue-minimisations  : 11216
 total energy-change (2. order) :-0.5596696E-05  (-0.4574432E-05)
 number of electron    1024.0008221 magnetization      45.4207293
 augmentation part      606.8181413 magnetization      38.9081841

 Broyden mixing:
  rms(total) = 0.20663E-02    rms(broyden)= 0.20660E-02
  rms(prec ) = 0.27005E-02
  weight for this iteration     100.00

 eigenvalues of (default mixing * dielectric matrix)
  average eigenvalue GAMMA=   1.2264
  2.4315  1.8460  1.7792  1.0027  0.5763  0.6211  0.7772  0.7772

 Free energy of the ion-electron system (eV)
  ---------------------------------------------------
  alpha Z        PSCENC =      9010.57505126
  Ewald energy   TEWEN  =   -148962.18054694
  -Hartree energ DENC   =    -62218.83085353
  -exchange      EXHF   =         0.00000000
  -V(xc)+E(xc)   XCENC  =      5611.83195215
  PAW double counting   =    170957.59990001  -180005.53719291
  entropy T*S    EENTRO =        -0.02652047
  eigenvalues    EBANDS =    -18777.28669304
  atomic energy  EATOM  =    224016.65216645
  Solvation  Ediel_sol  =         0.00000000
  ---------------------------------------------------
  free energy    TOTEN  =      -367.20273704 eV

  energy without entropy =     -367.17621657  energy(sigma->0) =     -367.19389688


--------------------------------------------------------------------------------------------------------




----------------------------------------- Iteration    1(  14)  ---------------------------------------


    POTLOK:  cpu time    0.4969: real time    0.4971
    SETDIJ:  cpu time    0.0900: real time    0.0890
     EDDAV:  cpu time  128.0065: real time  127.9017
       DOS:  cpu time    0.0040: real time    0.0047
    CHARGE:  cpu time    7.9908: real time    7.9836
    MIXING:  cpu time    0.0180: real time    0.0178
    --------------------------------------------
      LOOP:  cpu time  136.6062: real time  136.4946

 eigenvalue-minimisations  :  8880
 total energy-change (2. order) : 0.2060481E-04  (-0.8508289E-06)
 number of electron    1024.0008221 magnetization      45.4201878
 augmentation part      606.8130720 magnetization      38.9084905

 Broyden mixing:
  rms(total) = 0.75674E-03    rms(broyden)= 0.75671E-03
  rms(prec ) = 0.94661E-03
  weight for this iteration     100.00

 eigenvalues of (default mixing * dielectric matrix)
  average eigenvalue GAMMA=   1.2599
  2.4916  2.4916  1.7481  1.0540  0.8508  0.8508  0.5756  0.6246  0.6520

 Free energy of the ion-electron system (eV)
  ---------------------------------------------------
  alpha Z        PSCENC =      9010.57505126
  Ewald energy   TEWEN  =   -148962.18054694
  -Hartree energ DENC   =    -62219.48414018
  -exchange      EXHF   =         0.00000000
  -V(xc)+E(xc)   XCENC  =      5611.85673264
  PAW double counting   =    170966.60485175  -180014.22020445
  entropy T*S    EENTRO =        -0.02644377
  eigenvalues    EBANDS =    -18776.98018320
  atomic energy  EATOM  =    224016.65216645
  Solvation  Ediel_sol  =         0.00000000
  ---------------------------------------------------
  free energy    TOTEN  =      -367.20271643 eV

  energy without entropy =     -367.17627267  energy(sigma->0) =     -367.19390184


--------------------------------------------------------------------------------------------------------




----------------------------------------- Iteration    1(  15)  ---------------------------------------


    POTLOK:  cpu time    0.4969: real time    0.4966
    SETDIJ:  cpu time    0.0890: real time    0.0890
     EDDAV:  cpu time   97.5772: real time   97.4971
       DOS:  cpu time    0.0050: real time    0.0045
    CHARGE:  cpu time    8.0388: real time    8.0317
    MIXING:  cpu time    0.0190: real time    0.0192
    --------------------------------------------
      LOOP:  cpu time  106.2259: real time  106.1388

 eigenvalue-minimisations  :  6016
 total energy-change (2. order) : 0.6791350E-05  (-0.1884112E-06)
 number of electron    1024.0008221 magnetization      45.4201022
 augmentation part      606.8101172 magnetization      38.9083014

 Broyden mixing:
  rms(total) = 0.56404E-04    rms(broyden)= 0.55867E-04
  rms(prec ) = 0.60494E-04
  weight for this iteration     100.00

 eigenvalues of (default mixing * dielectric matrix)
  average eigenvalue GAMMA=   1.2380
  2.6269  2.4443  1.7474  1.1225  0.9784  0.8349  0.7820  0.5756  0.6253  0.6429

 Free energy of the ion-electron system (eV)
  ---------------------------------------------------
  alpha Z        PSCENC =      9010.57505126
  Ewald energy   TEWEN  =   -148962.18054694
  -Hartree energ DENC   =    -62219.74976500
  -exchange      EXHF   =         0.00000000
  -V(xc)+E(xc)   XCENC  =      5611.86670348
  PAW double counting   =    170969.28298059  -180016.81402492
  entropy T*S    EENTRO =        -0.02639065
  eigenvalues    EBANDS =    -18776.80888390
  atomic energy  EATOM  =    224016.65216645
  Solvation  Ediel_sol  =         0.00000000
  ---------------------------------------------------
  free energy    TOTEN  =      -367.20270964 eV

  energy without entropy =     -367.17631899  energy(sigma->0) =     -367.19391276


--------------------------------------------------------------------------------------------------------




----------------------------------------- Iteration    1(  16)  ---------------------------------------


    POTLOK:  cpu time    0.4979: real time    0.4975
    SETDIJ:  cpu time    0.0890: real time    0.0890
     EDDAV:  cpu time   91.6811: real time   91.6059
       DOS:  cpu time    0.0050: real time    0.0047
    --------------------------------------------
      LOOP:  cpu time   92.2730: real time   92.1977

 eigenvalue-minimisations  :  5448
 total energy-change (2. order) :-0.2458983E-06  (-0.2065685E-07)
 number of electron    1024.0008221 magnetization      45.4201022
 augmentation part      606.8101172 magnetization      38.9083014

 Free energy of the ion-electron system (eV)
  ---------------------------------------------------
  alpha Z        PSCENC =      9010.57505126
  Ewald energy   TEWEN  =   -148962.18054694
  -Hartree energ DENC   =    -62219.74859380
  -exchange      EXHF   =         0.00000000
  -V(xc)+E(xc)   XCENC  =      5611.86676676
  PAW double counting   =    170969.21042863  -180016.74307645
  entropy T*S    EENTRO =        -0.02638764
  eigenvalues    EBANDS =    -18776.80851815
  atomic energy  EATOM  =    224016.65216645
  Solvation  Ediel_sol  =         0.00000000
  ---------------------------------------------------
  free energy    TOTEN  =      -367.20270989 eV

  energy without entropy =     -367.17632225  energy(sigma->0) =     -367.19391401


--------------------------------------------------------------------------------------------------------




 average (electrostatic) potential at core
  the test charge radii are     0.8614
  (the norm of the test charge is              1.0000)
       1 -80.3717       2 -80.3717       3 -80.3717       4 -80.3717       5 -80.3717
       6 -80.3717       7 -80.3717       8 -80.3717       9 -80.3717      10 -80.3717
      11 -80.3717      12 -80.3717      13 -80.3717      14 -80.3717      15 -80.3717
      16 -80.3717      17 -80.3717      18 -80.3717      19 -80.3717      20 -80.3717
      21 -80.3717      22 -80.3717      23 -80.3717      24 -80.3717      25 -80.3717
      26 -80.3717      27 -80.3717      28 -80.3717      29 -80.3717      30 -80.3717
      31 -80.3717      32 -80.3717      33 -80.3717      34 -80.3717      35 -80.3717
      36 -80.3717      37 -80.3717      38 -80.3717      39 -80.3717      40 -80.3717
      41 -80.3717      42 -80.3717      43 -80.3717      44 -80.3717      45 -80.3717
      46 -80.3717      47 -80.3717      48 -80.3717      49 -80.3717      50 -80.3717
      51 -80.3717      52 -80.3717      53 -80.3717      54 -80.3717      55 -80.3717
      56 -80.3717      57 -80.3717      58 -80.3717      59 -80.3717      60 -80.3717
      61 -80.3717      62 -80.3717      63 -80.3717      64 -80.3717
 
 
 
 E-fermi :   6.7565     XC(G=0): -13.1876     alpha+bet :-13.5317


 spin component 1

 k-point     1 :       0.0000    0.0000    0.0000
  band No.  band energies     occupation 
      1     -57.1800      1.00000
      2     -57.1799      1.00000
      3     -57.1799      1.00000
      4     -57.1799      1.00000
      5     -57.1724      1.00000
      6     -57.1724      1.00000
      7     -57.1724      1.00000
      8     -57.1548      1.00000
      9     -57.1548      1.00000
     10     -57.1548      1.00000
     11     -57.1548      1.00000
     12     -57.1548      1.00000
     13     -57.1548      1.00000
     14     -57.1547      1.00000
     15     -57.1547      1.00000
     16     -57.1547      1.00000
     17     -57.1547      1.00000
     18     -57.1547      1.00000
     19     -57.1547      1.00000
     20     -57.1547      1.00000
     21     -57.1547      1.00000
     22     -57.1547      1.00000
     23     -57.1547      1.00000
     24     -57.1547      1.00000
     25     -57.1547      1.00000
     26     -57.1547      1.00000
     27     -57.1547      1.00000
     28     -57.1547      1.00000
     29     -57.1547      1.00000
     30     -57.1547      1.00000
     31     -57.1547      1.00000
     32     -57.1372      1.00000
     33     -57.1372      1.00000
     34     -57.1372      1.00000
     35     -57.1372      1.00000
     36     -57.1372      1.00000
     37     -57.1372      1.00000
     38     -57.1372      1.00000
     39     -57.1372      1.00000
     40     -57.1372      1.00000
     41     -57.1372      1.00000
     42     -57.1372      1.00000
     43     -57.1372      1.00000
     44     -57.1293      1.00000
     45     -57.1293      1.00000
     46     -57.1293      1.00000
     47     -57.1293      1.00000
     48     -57.1293      1.00000
     49     -57.1293      1.00000
     50     -57.1292      1.00000
     51     -57.1292      1.00000
     52     -57.1292      1.00000
     53     -57.1292      1.00000
     54     -57.1292      1.00000
     55     -57.1292      1.00000
     56     -57.1049      1.00000
     57     -57.1049      1.00000
     58     -57.1049      1.00000
     59     -57.1049      1.00000
     60     -57.1049      1.00000
     61     -57.1049      1.00000
     62     -57.1049      1.00000
     63     -57.1049      1.00000
     64     -57.1019      1.00000
     65     -57.1019      1.00000
     66     -57.1019      1.00000
     67     -57.1019      1.00000
     68     -57.1019      1.00000
     69     -57.1019      1.00000
     70     -57.0934      1.00000
     71     -57.0934      1.00000
     72     -57.0934      1.00000
     73     -57.0934      1.00000
     74     -57.0934      1.00000
     75     -57.0934      1.00000
     76     -57.0934      1.00000
     77     -57.0934      1.00000
     78     -57.0934      1.00000
     79     -57.0934      1.00000
     80     -57.0934      1.00000
     81     -57.0934      1.00000
     82     -57.0902      1.00000
     83     -57.0902      1.00000
     84     -57.0902      1.00000
     85     -57.0902      1.00000
     86     -57.0902      1.00000
     87     -57.0902      1.00000
     88     -57.0901      1.00000
     89     -57.0901      1.00000
     90     -57.0901      1.00000
     91     -57.0901      1.00000
     92     -57.0901      1.00000
     93     -57.0901      1.00000
     94     -57.0901      1.00000
     95     -57.0901      1.00000
     96     -57.0901      1.00000
     97     -57.0901      1.00000
     98     -57.0901      1.00000
     99     -57.0901      1.00000
    100     -57.0901      1.00000
    101     -57.0901      1.00000
    102     -57.0901      1.00000
    103     -57.0901      1.00000
    104     -57.0901      1.00000
    105     -57.0901      1.00000
    106     -57.0866      1.00000
    107     -57.0866      1.00000
    108     -57.0866      1.00000
    109     -57.0866      1.00000
    110     -57.0866      1.00000
    111     -57.0866      1.00000
    112     -57.0862      1.00000
    113     -57.0862      1.00000
    114     -57.0862      1.00000
    115     -57.0862      1.00000
    116     -57.0862      1.00000
    117     -57.0862      1.00000
    118     -57.0686      1.00000
    119     -57.0686      1.00000
    120     -57.0686      1.00000
    121     -57.0686      1.00000
    122     -57.0686      1.00000
    123     -57.0686      1.00000
    124     -57.0686      1.00000
    125     -57.0686      1.00000
    126     -57.0686      1.00000
    127     -57.0686      1.00000
    128     -57.0686      1.00000
    129     -57.0686      1.00000
    130     -57.0686      1.00000
    131     -57.0686      1.00000
    132     -57.0686      1.00000
    133     -57.0686      1.00000
    134     -57.0686      1.00000
    135     -57.0686      1.00000
    136     -57.0686      1.00000
    137     -57.0686      1.00000
    138     -57.0686      1.00000
    139     -57.0686      1.00000
    140     -57.0686      1.00000
    141     -57.0686      1.00000
    142     -57.0577      1.00000
    143     -57.0577      1.00000
    144     -57.0577      1.00000
    145     -57.0577      1.00000
    146     -57.0577      1.00000
    147     -57.0577      1.00000
    148     -57.0577      1.00000
    149     -57.0577      1.00000
    150     -57.0577      1.00000
    151     -57.0577      1.00000
    152     -57.0577      1.00000
    153     -57.0577      1.00000
    154     -57.0509      1.00000
    155     -57.0509      1.00000
    156     -57.0509      1.00000
    157     -57.0509      1.00000
    158     -57.0509      1.00000
    159     -57.0509      1.00000
    160     -57.0508      1.00000
    161     -57.0508      1.00000
    162     -57.0508      1.00000
    163     -57.0508      1.00000
    164     -57.0508      1.00000
    165     -57.0508      1.00000
    166     -57.0508      1.00000
    167     -57.0508      1.00000
    168     -57.0508      1.00000
    169     -57.0508      1.00000
    170     -57.0508      1.00000
    171     -57.0508      1.00000
    172     -57.0508      1.00000
    173     -57.0508      1.00000
    174     -57.0398      1.00000
    175     -57.0398      1.00000
    176     -57.0398      1.00000
    177     -57.0398      1.00000
    178     -57.0398      1.00000
    179     -57.0398      1.00000
    180     -57.0397      1.00000
    181     -57.0397      1.00000
    182     -57.0397      1.00000
    183     -57.0397      1.00000
    184     -57.0397      1.00000
    185     -57.0397      1.00000
    186     -57.0397      1.00000
    187     -57.0397      1.00000
    188     -57.0397      1.00000
    189     -57.0397      1.00000
    190     -57.0287      1.00000
    191     -57.0286      1.00000
    192     -57.0286      1.00000
    193      -1.6772      1.00000
    194       0.4201      1.00000
    195       0.4201      1.00000
    196       0.4201      1.00000
    197       0.4201      1.00000
    198       0.4201      1.00000
    199       0.4201      1.00000
    200       0.4201      1.00000
    201       0.4201      1.00000
    202       1.0486      1.00000
    203       1.0486      1.00000
    204       1.0486      1.00000
    205       1.0486      1.00000
    206       1.0486      1.00000
    207       1.0486      1.00000
    208       2.3399      1.00000
    209       2.3400      1.00000
    210       2.3400      1.00000
    211       2.3400      1.00000
    212       2.5607      1.00000
    213       2.5607      1.00000
    214       2.5607      1.00000
    215       2.8492      1.00000
    216       2.8492      1.00000
    217       2.8492      1.00000
    218       2.8492      1.00000
    219       2.8492      1.00000
    220       2.8492      1.00000
    221       2.8493      1.00000
    222       2.8493      1.00000
    223       2.8493      1.00000
    224       2.8493      1.00000
    225       2.8493      1.00000
    226       2.8493      1.00000
    227       2.9542      1.00000
    228       2.9542      1.00000
    229       2.9542      1.00000
    230       3.0272      1.00000
    231       3.0272      1.00000
    232       3.0272      1.00000
    233       3.0272      1.00000
    234       3.0272      1.00000
    235       3.0272      1.00000
    236       3.0273      1.00000
    237       3.0273      1.00000
    238       3.0273      1.00000
    239       3.0273      1.00000
    240       3.0273      1.00000
    241       3.0273      1.00000
    242       3.0273      1.00000
    243       3.0273      1.00000
    244       3.0273      1.00000
    245       3.0273      1.00000
    246       3.0273      1.00000
    247       3.0273      1.00000
    248       3.0273      1.00000
    249       3.0273      1.00000
    250       3.0273      1.00000
    251       3.0273      1.00000
    252       3.0273      1.00000
    253       3.0273      1.00000
    254       3.3498      1.00000
    255       3.3498      1.00000
    256       3.3498      1.00000
    257       3.3498      1.00000
    258       3.3498      1.00000
    259       3.3498      1.00000
    260       3.6182      1.00000
    261       3.6182      1.00000
    262       3.6182      1.00000
    263       3.6182      1.00000
    264       3.6182      1.00000
    265       3.6182      1.00000
    266       3.6182      1.00000
    267       3.6182      1.00000
    268       3.6182      1.00000
    269       3.6182      1.00000
    270       3.6182      1.00000
    271       3.6182      1.00000
    272       3.6182      1.00000
    273       3.6182      1.00000
    274       3.6182      1.00000
    275       3.6182      1.00000
    276       3.6182      1.00000
    277       3.6182      1.00000
    278       3.6183      1.00000
    279       3.6183      1.00000
    280       3.6183      1.00000
    281       3.6183      1.00000
    282       3.6183      1.00000
    283       3.6183      1.00000
    284       3.6899      1.00000
    285       3.6899      1.00000
    286       3.6899      1.00000
    287       3.6899      1.00000
    288       3.6899      1.00000
    289       3.6899      1.00000
    290       3.9358      1.00000
    291       3.9358      1.00000
    292       3.9358      1.00000
    293       3.9358      1.00000
    294       3.9358      1.00000
    295       3.9358      1.00000
    296       3.9358      1.00000
    297       3.9358      1.00000
    298       3.9358      1.00000
    299       3.9358      1.00000
    300       3.9358      1.00000
    301       3.9358      1.00000
    302       3.9358      1.00000
    303       3.9358      1.00000
    304       3.9358      1.00000
    305       3.9358      1.00000
    306       3.9358      1.00000
    307       3.9358      1.00000
    308       3.9358      1.00000
    309       3.9358      1.00000
    310       3.9358      1.00000
    311       3.9358      1.00000
    312       3.9358      1.00000
    313       3.9358      1.00000
    314       4.2119      1.00000
    315       4.2119      1.00000
    316       4.2119      1.00000
    317       4.2119      1.00000
    318       4.2119      1.00000
    319       4.2119      1.00000
    320       4.2119      1.00000
    321       4.2119      1.00000
    322       4.2223      1.00000
    323       4.2223      1.00000
    324       4.2223      1.00000
    325       4.2223      1.00000
    326       4.2223      1.00000
    327       4.2223      1.00000
    328       4.2223      1.00000
    329       4.2223      1.00000
    330       4.2223      1.00000
    331       4.2223      1.00000
    332       4.2223      1.00000
    333       4.2223      1.00000
    334       4.4807      1.00000
    335       4.4808      1.00000
    336       4.4808      1.00000
    337       4.5011      1.00000
    338       4.5011      1.00000
    339       4.5011      1.00000
    340       4.5011      1.00000
    341       4.5011      1.00000
    342       4.5011      1.00000
    343       4.5011      1.00000
    344       4.5011      1.00000
    345       4.5318      1.00000
    346       4.5318      1.00000
    347       4.5318      1.00000
    348       4.5318      1.00000
    349       4.5318      1.00000
    350       4.5318      1.00000
    351       4.5318      1.00000
    352       4.5318      1.00000
    353       4.5318      1.00000
    354       4.5318      1.00000
    355       4.5318      1.00000
    356       4.5318      1.00000
    357       4.5318      1.00000
    358       4.5318      1.00000
    359       4.5318      1.00000
    360       4.5318      1.00000
    361       4.5318      1.00000
    362       4.5318      1.00000
    363       4.5318      1.00000
    364       4.5318      1.00000
    365       4.5318      1.00000
    366       4.5318      1.00000
    367       4.5318      1.00000
    368       4.5318      1.00000
    369       4.6806      1.00000
    370       4.6806      1.00000
    371       4.6806      1.00000
    372       4.6806      1.00000
    373       4.6806      1.00000
    374       4.6806      1.00000
    375       4.6806      1.00000
    376       4.6806      1.00000
    377       4.6806      1.00000
    378       4.6806      1.00000
    379       4.6806      1.00000
    380       4.6806      1.00000
    381       4.6806      1.00000
    382       4.6806      1.00000
    383       4.6806      1.00000
    384       4.6806      1.00000
    385       4.9891      1.00000
    386       4.9891      1.00000
    387       4.9891      1.00000
    388       4.9891      1.00000
    389       4.9891      1.00000
    390       4.9891      1.00000
    391       5.1327      1.00000
    392       5.1327      1.00000
    393       5.1327      1.00000
    394       5.1327      1.00000
    395       5.1327      1.00000
    396       5.1327      1.00000
    397       5.1327      1.00000
    398       5.1327      1.00000
    399       5.1327      1.00000
    400       5.1327      1.00000
    401       5.1327      1.00000
    402       5.1327      1.00000
    403       5.2095      1.00000
    404       5.2095      1.00000
    405       5.2095      1.00000
    406       5.2095      1.00000
    407       5.2095      1.00000
    408       5.2095      1.00000
    409       5.2095      1.00000
    410       5.2095      1.00000
    411       5.2095      1.00000
    412       5.2095      1.00000
    413       5.2095      1.00000
    414       5.2095      1.00000
    415       5.2488      1.00000
    416       5.2488      1.00000
    417       5.2488      1.00000
    418       5.2488      1.00000
    419       5.2488      1.00000
    420       5.2488      1.00000
    421       5.2488      1.00000
    422       5.2488      1.00000
    423       5.2488      1.00000
    424       5.2488      1.00000
    425       5.2488      1.00000
    426       5.2488      1.00000
    427       5.2488      1.00000
    428       5.2488      1.00000
    429       5.2488      1.00000
    430       5.2488      1.00000
    431       5.2488      1.00000
    432       5.2488      1.00000
    433       5.2488      1.00000
    434       5.2488      1.00000
    435       5.2488      1.00000
    436       5.2488      1.00000
    437       5.2488      1.00000
    438       5.2488      1.00000
    439       5.3874      1.00000
    440       5.3874      1.00000
    441       5.3874      1.00000
    442       5.3874      1.00000
    443       5.3874      1.00000
    444       5.3874      1.00000
    445       5.3874      1.00000
    446       5.3874      1.00000
    447       5.3874      1.00000
    448       5.3874      1.00000
    449       5.3874      1.00000
    450       5.3874      1.00000
    451       5.4499      1.00000
    452       5.4499      1.00000
    453       5.4499      1.00000
    454       5.4499      1.00000
    455       5.4499      1.00000
    456       5.4499      1.00000
    457       5.4991      1.00000
    458       5.4991      1.00000
    459       5.5595      1.00000
    460       5.5595      1.00000
    461       5.5595      1.00000
    462       5.5595      1.00000
    463       5.5595      1.00000
    464       5.5595      1.00000
    465       5.5595      1.00000
    466       5.5595      1.00000
    467       5.5595      1.00000
    468       5.5595      1.00000
    469       5.5595      1.00000
    470       5.5595      1.00000
    471       5.5595      1.00000
    472       5.5595      1.00000
    473       5.5595      1.00000
    474       5.5595      1.00000
    475       5.8023      1.00000
    476       5.8023      1.00000
    477       5.8023      1.00000
    478       5.8023      1.00000
    479       5.8023      1.00000
    480       5.8023      1.00000
    481       6.0690      1.00001
    482       6.0690      1.00001
    483       6.0690      1.00001
    484       6.0690      1.00001
    485       6.0690      1.00001
    486       6.0690      1.00001
    487       6.0690      1.00001
    488       6.0690      1.00001
    489       6.1101      1.00002
    490       6.1101      1.00002
    491       6.1101      1.00002
    492       6.1101      1.00002
    493       6.1101      1.00002
    494       6.1101      1.00002
    495       6.1102      1.00002
    496       6.1102      1.00002
    497       6.1102      1.00002
    498       6.1102      1.00002
    499       6.1102      1.00002
    500       6.1102      1.00002
    501       6.1102      1.00002
    502       6.1102      1.00002
    503       6.1102      1.00002
    504       6.1102      1.00002
    505       6.1102      1.00002
    506       6.1102      1.00002
    507       6.1102      1.00002
    508       6.1102      1.00002
    509       6.1102      1.00002
    510       6.1102      1.00002
    511       6.1102      1.00002
    512       6.1102      1.00002
    513       6.1147      1.00003
    514       6.1147      1.00003
    515       6.1147      1.00003
    516       6.1809      1.00018
    517       6.1809      1.00018
    518       6.1809      1.00018
    519       6.1809      1.00018
    520       6.1809      1.00018
    521       6.1809      1.00018
    522       6.1818      1.00019
    523       6.1818      1.00019
    524       6.1818      1.00019
    525       6.1818      1.00019
    526       6.1818      1.00019
    527       6.1818      1.00019
    528       6.5717      1.01534
    529       6.5717      1.01534
    530       6.5717      1.01534
    531       6.5718      1.01527
    532       7.4831     -0.00000
    533       7.4831     -0.00000
    534       7.4831     -0.00000
    535       7.4831     -0.00000
    536       7.4831     -0.00000
    537       7.4831     -0.00000
    538       7.4831     -0.00000
    539       7.4831     -0.00000
    540       7.4831     -0.00000
    541       7.4831     -0.00000
    542       7.4831     -0.00000
    543       7.4831     -0.00000
    544       8.7152     -0.00000
    545       8.7152     -0.00000
    546       8.7152     -0.00000
    547       8.7152     -0.00000
    548       8.7152     -0.00000
    549       8.7152     -0.00000
    550       8.7152     -0.00000
    551       8.7152     -0.00000
    552       8.7152     -0.00000
    553       8.7152     -0.00000
    554       8.7152     -0.00000
    555       8.7152     -0.00000
    556       8.7152     -0.00000
    557       8.7152     -0.00000
    558       8.7152     -0.00000
    559       8.7152     -0.00000
    560       8.7152     -0.00000
    561       8.7152     -0.00000
    562       8.7152     -0.00000
    563       8.7152     -0.00000
    564       8.7152     -0.00000
    565       8.7152     -0.00000
    566       8.7152     -0.00000
    567       8.7152     -0.00000
    568       9.0893     -0.00000
    569       9.0893     -0.00000
    570       9.0893     -0.00000
    571      11.7179     -0.00000
    572      11.7179     -0.00000
    573      11.7179     -0.00000
    574      11.7179     -0.00000
    575      13.9159      0.00000
    576      13.9159      0.00000
    577      13.9159      0.00000
[...]
      7.261500  3.630750  3.630750    -0.000173    0.000809   -0.124997  
      9.076875  5.446125  3.630750    -0.000173    0.000809   -0.124997  
      5.446125  0.000000  5.446125    -0.000173    0.000809   -0.124997  
      7.261500  1.815375  5.446125    -0.000173    0.000809   -0.124997  
      9.076875  3.630750  5.446125    -0.000173    0.000809   -0.124997  
     10.892250  5.446125  5.446125    -0.000173    0.000809   -0.124997  
      0.000000  1.815375  1.815375    -0.000173    0.000809   -0.124997  
      1.815375  3.630750  1.815375    -0.000173    0.000809   -0.124997  
      3.630750  5.446125  1.815375    -0.000173    0.000809   -0.124997  
      5.446125  7.261500  1.815375    -0.000173    0.000809   -0.124997  
      1.815375  1.815375  3.630750    -0.000173    0.000809   -0.124997  
      3.630750  3.630750  3.630750    -0.000173    0.000809   -0.124997  
      5.446125  5.446125  3.630750    -0.000173    0.000809   -0.124997  
      7.261500  7.261500  3.630750    -0.000173    0.000809   -0.124997  
      3.630750  1.815375  5.446125    -0.000173    0.000809   -0.124997  
      5.446125  3.630750  5.446125    -0.000173    0.000809   -0.124997  
      7.261500  5.446125  5.446125    -0.000173    0.000809   -0.124997  
      9.076875  7.261500  5.446125    -0.000173    0.000809   -0.124997  
      5.446125  1.815375  7.261500    -0.000173    0.000809   -0.124997  
      7.261500  3.630750  7.261500    -0.000173    0.000809   -0.124997  
      9.076875  5.446125  7.261500    -0.000173    0.000809   -0.124997  
     10.892250  7.261500  7.261500    -0.000173    0.000809   -0.124997  
      0.000000  3.630750  3.630750    -0.000173    0.000809   -0.124997  
      1.815375  5.446125  3.630750    -0.000173    0.000809   -0.124997  
      3.630750  7.261500  3.630750    -0.000173    0.000809   -0.124997  
      5.446125  9.076875  3.630750    -0.000173    0.000809   -0.124997  
      1.815375  3.630750  5.446125    -0.000173    0.000809   -0.124997  
      3.630750  5.446125  5.446125    -0.000173    0.000809   -0.124997  
      5.446125  7.261500  5.446125    -0.000173    0.000809   -0.124997  
      7.261500  9.076875  5.446125    -0.000173    0.000809   -0.124997  
      3.630750  3.630750  7.261500    -0.000173    0.000809   -0.124997  
      5.446125  5.446125  7.261500    -0.000173    0.000809   -0.124997  
      7.261500  7.261500  7.261500    -0.000173    0.000809   -0.124997  
      9.076875  9.076875  7.261500    -0.000173    0.000809   -0.124997  
      5.446125  3.630750  9.076875    -0.000173    0.000809   -0.124997  
      7.261500  5.446125  9.076875    -0.000173    0.000809   -0.124997  
      9.076875  7.261500  9.076875    -0.000173    0.000809   -0.124997  
     10.892250  9.076875  9.076875    -0.000173    0.000809   -0.124997  
      0.000000  5.446125  5.446125    -0.000173    0.000809   -0.124997  
      1.815375  7.261500  5.446125    -0.000173    0.000809   -0.124997  
      3.630750  9.076875  5.446125    -0.000173    0.000809   -0.124997  
      5.446125 10.892250  5.446125    -0.000173    0.000809   -0.124997  
      1.815375  5.446125  7.261500    -0.000173    0.000809   -0.124997  
      3.630750  7.261500  7.261500    -0.000173    0.000809   -0.124997  
      5.446125  9.076875  7.261500    -0.000173    0.000809   -0.124997  
      7.261500 10.892250  7.261500    -0.000173    0.000809   -0.124997  
      3.630750  5.446125  9.076875    -0.000173    0.000809   -0.124997  
      5.446125  7.261500  9.076875    -0.000173    0.000809   -0.124997  
      7.261500  9.076875  9.076875    -0.000173    0.000809   -0.124997  
      9.076875 10.892250  9.076875    -0.000173    0.000809   -0.124997  
      5.446125  5.446125 10.892250    -0.000173    0.000809   -0.124997  
      7.261500  7.261500 10.892250    -0.000173    0.000809   -0.124997  
      9.076875  9.076875 10.892250    -0.000173    0.000809   -0.124997  
     10.892250 10.892250 10.892250    -0.000173    0.000809   -0.124997  
 
 192 f/i=    0.000001 THz     0.000008 2PiTHz    0.000044 cm-1     0.000006 meV
             X         Y         Z           dx          dy          dz
      0.000000  0.000000  0.000000     0.122586   -0.024447   -0.000328  
      1.815375  1.815375  0.000000     0.122586   -0.024447   -0.000328  
      3.630750  3.630750  0.000000     0.122586   -0.024447   -0.000328  
      5.446125  5.446125  0.000000     0.122586   -0.024447   -0.000328  
      1.815375  0.000000  1.815375     0.122586   -0.024447   -0.000328  
      3.630750  1.815375  1.815375     0.122586   -0.024447   -0.000328  
      5.446125  3.630750  1.815375     0.122586   -0.024447   -0.000328  
      7.261500  5.446125  1.815375     0.122586   -0.024447   -0.000328  
      3.630750  0.000000  3.630750     0.122586   -0.024447   -0.000328  
      5.446125  1.815375  3.630750     0.122586   -0.024447   -0.000328  
      7.261500  3.630750  3.630750     0.122586   -0.024447   -0.000328  
      9.076875  5.446125  3.630750     0.122586   -0.024447   -0.000328  
      5.446125  0.000000  5.446125     0.122586   -0.024447   -0.000328  
      7.261500  1.815375  5.446125     0.122586   -0.024447   -0.000328  
      9.076875  3.630750  5.446125     0.122586   -0.024447   -0.000328  
     10.892250  5.446125  5.446125     0.122586   -0.024447   -0.000328  
      0.000000  1.815375  1.815375     0.122586   -0.024447   -0.000328  
      1.815375  3.630750  1.815375     0.122586   -0.024447   -0.000328  
      3.630750  5.446125  1.815375     0.122586   -0.024447   -0.000328  
      5.446125  7.261500  1.815375     0.122586   -0.024447   -0.000328  
      1.815375  1.815375  3.630750     0.122586   -0.024447   -0.000328  
      3.630750  3.630750  3.630750     0.122586   -0.024447   -0.000328  
      5.446125  5.446125  3.630750     0.122586   -0.024447   -0.000328  
      7.261500  7.261500  3.630750     0.122586   -0.024447   -0.000328  
      3.630750  1.815375  5.446125     0.122586   -0.024447   -0.000328  
      5.446125  3.630750  5.446125     0.122586   -0.024447   -0.000328  
      7.261500  5.446125  5.446125     0.122586   -0.024447   -0.000328  
      9.076875  7.261500  5.446125     0.122586   -0.024447   -0.000328  
      5.446125  1.815375  7.261500     0.122586   -0.024447   -0.000328  
      7.261500  3.630750  7.261500     0.122586   -0.024447   -0.000328  
      9.076875  5.446125  7.261500     0.122586   -0.024447   -0.000328  
     10.892250  7.261500  7.261500     0.122586   -0.024447   -0.000328  
      0.000000  3.630750  3.630750     0.122586   -0.024447   -0.000328  
      1.815375  5.446125  3.630750     0.122586   -0.024447   -0.000328  
      3.630750  7.261500  3.630750     0.122586   -0.024447   -0.000328  
      5.446125  9.076875  3.630750     0.122586   -0.024447   -0.000328  
      1.815375  3.630750  5.446125     0.122586   -0.024447   -0.000328  
      3.630750  5.446125  5.446125     0.122586   -0.024447   -0.000328  
      5.446125  7.261500  5.446125     0.122586   -0.024447   -0.000328  
      7.261500  9.076875  5.446125     0.122586   -0.024447   -0.000328  
      3.630750  3.630750  7.261500     0.122586   -0.024447   -0.000328  
      5.446125  5.446125  7.261500     0.122586   -0.024447   -0.000328  
      7.261500  7.261500  7.261500     0.122586   -0.024447   -0.000328  
      9.076875  9.076875  7.261500     0.122586   -0.024447   -0.000328  
      5.446125  3.630750  9.076875     0.122586   -0.024447   -0.000328  
      7.261500  5.446125  9.076875     0.122586   -0.024447   -0.000328  
      9.076875  7.261500  9.076875     0.122586   -0.024447   -0.000328  
     10.892250  9.076875  9.076875     0.122586   -0.024447   -0.000328  
      0.000000  5.446125  5.446125     0.122586   -0.024447   -0.000328  
      1.815375  7.261500  5.446125     0.122586   -0.024447   -0.000328  
      3.630750  9.076875  5.446125     0.122586   -0.024447   -0.000328  
      5.446125 10.892250  5.446125     0.122586   -0.024447   -0.000328  
      1.815375  5.446125  7.261500     0.122586   -0.024447   -0.000328  
      3.630750  7.261500  7.261500     0.122586   -0.024447   -0.000328  
      5.446125  9.076875  7.261500     0.122586   -0.024447   -0.000328  
      7.261500 10.892250  7.261500     0.122586   -0.024447   -0.000328  
      3.630750  5.446125  9.076875     0.122586   -0.024447   -0.000328  
      5.446125  7.261500  9.076875     0.122586   -0.024447   -0.000328  
      7.261500  9.076875  9.076875     0.122586   -0.024447   -0.000328  
      9.076875 10.892250  9.076875     0.122586   -0.024447   -0.000328  
      5.446125  5.446125 10.892250     0.122586   -0.024447   -0.000328  
      7.261500  7.261500 10.892250     0.122586   -0.024447   -0.000328  
      9.076875  9.076875 10.892250     0.122586   -0.024447   -0.000328  
     10.892250 10.892250 10.892250     0.122586   -0.024447   -0.000328  
 

 ELASTIC MODULI CONTR FROM IONIC RELAXATION (kBar)
 Direction    XX          YY          ZZ          XY          YZ          ZX
 --------------------------------------------------------------------------------
 XX          -0.0000      0.0000     -0.0000     -0.0000     -0.0000      0.0000
 YY           0.0000     -0.0000      0.0000      0.0000      0.0000     -0.0000
 ZZ          -0.0000      0.0000     -0.0000      0.0000      0.0000      0.0000
 XY           0.0000      0.0000     -0.0000     -0.0000     -0.0000      0.0000
 YZ           0.0000      0.0000     -0.0000     -0.0000     -0.0000      0.0000
 ZX          -0.0000     -0.0000      0.0000      0.0000      0.0000      0.0000
 --------------------------------------------------------------------------------



--------------------------------------------------------------------------------------------------------


  LATTYP: Found a face centered cubic cell.
 ALAT       =    14.5230000000
  
  Lattice vectors:
  
 A1 = (   0.0000000000,   7.2615000000,   7.2615000000)
 A2 = (   7.2615000000,   0.0000000000,   7.2615000000)
 A3 = (   7.2615000000,   7.2615000000,   0.0000000000)


Analysis of symmetry for initial positions (statically):
=====================================================================
 Subroutine PRICEL returns following result:
 
  LATTYP: Found a face centered cubic cell.
 ALAT       =     3.6307500000
  
  Lattice vectors:
  
 A1 = (   0.0000000000,   1.8153750000,   1.8153750000)
 A2 = (   1.8153750000,   0.0000000000,   1.8153750000)
 A3 = (   1.8153750000,   1.8153750000,   0.0000000000)
 
  64 primitive cells build up your supercell.
 

 Routine SETGRP: Setting up the symmetry group for a 
 face centered cubic supercell.


 Subroutine GETGRP returns: Found 48 space group operations
 (whereof 48 operations were pure point group operations)
 out of a pool of 48 trial point group operations.


The static configuration has the point symmetry O_h .


Analysis of symmetry for dynamics (positions and initial velocities):
=====================================================================
 Subroutine PRICEL returns following result:
 
  LATTYP: Found a face centered cubic cell.
 ALAT       =     3.6307500000
  
  Lattice vectors:
  
 A1 = (   0.0000000000,   1.8153750000,   1.8153750000)
 A2 = (   1.8153750000,   0.0000000000,   1.8153750000)
 A3 = (   1.8153750000,   1.8153750000,   0.0000000000)
 
  64 primitive cells build up your supercell.
 

 Routine SETGRP: Setting up the symmetry group for a 
 face centered cubic supercell.


 Subroutine GETGRP returns: Found 48 space group operations
 (whereof 48 operations were pure point group operations)
 out of a pool of 48 trial point group operations.


The dynamic configuration has the point symmetry O_h .


Analysis of structural, dynamic, and magnetic symmetry:
=====================================================================
 Subroutine PRICEL returns following result:
 
  LATTYP: Found a face centered cubic cell.
 ALAT       =     3.6307500000
  
  Lattice vectors:
  
 A1 = (   0.0000000000,   1.8153750000,   1.8153750000)
 A2 = (   1.8153750000,   0.0000000000,   1.8153750000)
 A3 = (   1.8153750000,   1.8153750000,   0.0000000000)
 
  64 primitive cells build up your supercell.
 

 Routine SETGRP: Setting up the symmetry group for a 
 face centered cubic supercell.


 Subroutine GETGRP returns: Found 48 space group operations
 (whereof 48 operations were pure point group operations)
 out of a pool of 48 trial point group operations.


The magnetic configuration has the point symmetry O_h .


 Subroutine INISYM returns: Found 48 space group operations
 (whereof 48 operations are pure point group operations),
 and found    64 'primitive' translations

 
 KPOINTS: Zr 15x15x15                             

Automatic generation of k-mesh.
Space group operators:
 irot       det(A)        alpha          n_x          n_y          n_z        tau_x        tau_y        tau_z
    1     1.000000     0.000000     1.000000     0.000000     0.000000     0.000000     0.000000     0.000000
    2    -1.000000     0.000000     1.000000     0.000000     0.000000     0.000000     0.000000     0.000000
    3     1.000000   120.000000    -0.577350    -0.577350    -0.577350     0.000000     0.000000     0.000000
    4    -1.000000   120.000000    -0.577350    -0.577350    -0.577350     0.000000     0.000000     0.000000
    5     1.000000   120.000000     0.577350     0.577350     0.577350     0.000000     0.000000     0.000000
    6    -1.000000   120.000000     0.577350     0.577350     0.577350     0.000000     0.000000     0.000000
    7     1.000000    90.000000     0.000000     0.000000    -1.000000     0.000000     0.000000     0.000000
    8    -1.000000    90.000000     0.000000     0.000000    -1.000000     0.000000     0.000000     0.000000
    9     1.000000   180.000000     0.000000     0.707107     0.707107     0.000000     0.000000     0.000000
   10    -1.000000   180.000000     0.000000     0.707107     0.707107     0.000000     0.000000     0.000000
   11     1.000000    90.000000     0.000000     1.000000     0.000000     0.000000     0.000000     0.000000
   12    -1.000000    90.000000     0.000000     1.000000     0.000000     0.000000     0.000000     0.000000
   13     1.000000   180.000000     0.000000     0.000000     1.000000     0.000000     0.000000     0.000000
   14    -1.000000   180.000000     0.000000     0.000000     1.000000     0.000000     0.000000     0.000000
   15     1.000000   120.000000    -0.577350     0.577350     0.577350     0.000000     0.000000     0.000000
   16    -1.000000   120.000000    -0.577350     0.577350     0.577350     0.000000     0.000000     0.000000
   17     1.000000   120.000000    -0.577350     0.577350    -0.577350     0.000000     0.000000     0.000000
   18    -1.000000   120.000000    -0.577350     0.577350    -0.577350     0.000000     0.000000     0.000000
   19     1.000000    90.000000     0.000000     0.000000     1.000000     0.000000     0.000000     0.000000
   20    -1.000000    90.000000     0.000000     0.000000     1.000000     0.000000     0.000000     0.000000
   21     1.000000    90.000000    -1.000000     0.000000     0.000000     0.000000     0.000000     0.000000
   22    -1.000000    90.000000    -1.000000     0.000000     0.000000     0.000000     0.000000     0.000000
   23     1.000000   180.000000     0.707107     0.000000     0.707107     0.000000     0.000000     0.000000
   24    -1.000000   180.000000     0.707107     0.000000     0.707107     0.000000     0.000000     0.000000
   25     1.000000   120.000000     0.577350    -0.577350     0.577350     0.000000     0.000000     0.000000
   26    -1.000000   120.000000     0.577350    -0.577350     0.577350     0.000000     0.000000     0.000000
   27     1.000000   120.000000    -0.577350    -0.577350     0.577350     0.000000     0.000000     0.000000
   28    -1.000000   120.000000    -0.577350    -0.577350     0.577350     0.000000     0.000000     0.000000
   29     1.000000   180.000000     1.000000     0.000000     0.000000     0.000000     0.000000     0.000000
   30    -1.000000   180.000000     1.000000     0.000000     0.000000     0.000000     0.000000     0.000000
   31     1.000000    90.000000     0.000000    -1.000000     0.000000     0.000000     0.000000     0.000000
   32    -1.000000    90.000000     0.000000    -1.000000     0.000000     0.000000     0.000000     0.000000
   33     1.000000   180.000000     0.707107     0.707107     0.000000     0.000000     0.000000     0.000000
   34    -1.000000   180.000000     0.707107     0.707107     0.000000     0.000000     0.000000     0.000000
   35     1.000000    90.000000     1.000000     0.000000     0.000000     0.000000     0.000000     0.000000
   36    -1.000000    90.000000     1.000000     0.000000     0.000000     0.000000     0.000000     0.000000
   37     1.000000   120.000000     0.577350    -0.577350    -0.577350     0.000000     0.000000     0.000000
   38    -1.000000   120.000000     0.577350    -0.577350    -0.577350     0.000000     0.000000     0.000000
   39     1.000000   180.000000     0.000000     1.000000     0.000000     0.000000     0.000000     0.000000
   40    -1.000000   180.000000     0.000000     1.000000     0.000000     0.000000     0.000000     0.000000
   41     1.000000   120.000000     0.577350     0.577350    -0.577350     0.000000     0.000000     0.000000
   42    -1.000000   120.000000     0.577350     0.577350    -0.577350     0.000000     0.000000     0.000000
   43     1.000000   180.000000     0.000000    -0.707107     0.707107     0.000000     0.000000     0.000000
   44    -1.000000   180.000000     0.000000    -0.707107     0.707107     0.000000     0.000000     0.000000
   45     1.000000   180.000000     0.707107    -0.707107     0.000000     0.000000     0.000000     0.000000
   46    -1.000000   180.000000     0.707107    -0.707107     0.000000     0.000000     0.000000     0.000000
   47     1.000000   180.000000     0.707107     0.000000    -0.707107     0.000000     0.000000     0.000000
   48    -1.000000   180.000000     0.707107     0.000000    -0.707107     0.000000     0.000000     0.000000
 
 Subroutine IBZKPT returns following result:
 ===========================================
 
 Found      4 irreducible k-points:
 
 Following reciprocal coordinates:
            Coordinates               Weight
  0.000000  0.000000  0.000000      1.000000
  0.333333  0.000000  0.000000      8.000000
  0.333333  0.333333  0.000000      6.000000
 -0.333333  0.333333  0.000000     12.000000
 
 Following cartesian coordinates:
            Coordinates               Weight
  0.000000  0.000000  0.000000      1.000000
 -0.022952  0.022952  0.022952      8.000000
  0.000000  0.000000  0.045904      6.000000
  0.045904 -0.045904  0.000000     12.000000
 
 writing wavefunctions
     LOOP+:  cpu time 4246.8514: real time 4257.4057
    4ORBIT:  cpu time    0.0000: real time    0.0000

 total amount of memory used by VASP on root node   528226. kBytes
========================================================================

   base      :      30000. kBytes
   nonlr-proj:      37924. kBytes
   fftplans  :      16731. kBytes
   grid      :      61532. kBytes
   one-center:       1990. kBytes
   wavefun   :     380049. kBytes
 
  
  
 General timing and accounting informations for this job:
 ========================================================
  
                  Total CPU time used (sec):    10591.626
                            User time (sec):    10523.964
                          System time (sec):       67.662
                         Elapsed time (sec):    10606.164
  
                   Maximum memory used (kb):     1350816.
                   Average memory used (kb):           0.
  
                          Minor page faults:        66887
                          Major page faults:            0
                 Voluntary context switches:         1119
