       N       E                     dE             d eps       ncg     rms          rms(c)
DAV:   1     0.116389482887E+03    0.11639E+03   -0.95965E+03 17184   0.124E+03
DAV:   2    -0.437810788595E+01   -0.12077E+03   -0.11250E+03 17784   0.344E+02
DAV:   3    -0.669113835413E+01   -0.23130E+01   -0.23047E+01 19984   0.548E+01
DAV:   4    -0.670789165166E+01   -0.16753E-01   -0.16752E-01 19120   0.443E+00
DAV:   5    -0.670818399294E+01   -0.29234E-03   -0.29236E-03 20624   0.570E-01    0.850E+00
DAV:   6    -0.631283094167E+01    0.39535E+00   -0.40980E+00 18504   0.481E+01    0.704E+00
DAV:   7    -0.574511775808E+01    0.56771E+00   -0.99538E-01 18512   0.228E+01    0.810E-01
DAV:   8    -0.573575738610E+01    0.93604E-02   -0.11640E-02 22064   0.987E-01    0.296E-01
DAV:   9    -0.573450959757E+01    0.12478E-02   -0.67046E-04 24624   0.368E-01    0.598E-02
DAV:  10    -0.573454341907E+01   -0.33821E-04   -0.40348E-05 18944   0.748E-02    0.272E-02
DAV:  11    -0.573454935693E+01   -0.59379E-05   -0.50465E-06 19912   0.418E-02    0.657E-03
DAV:  12    -0.573454727523E+01    0.20817E-05   -0.79586E-07 14968   0.105E-02    0.415E-03
DAV:  13    -0.573454859038E+01   -0.13151E-05   -0.12672E-07  9968   0.552E-03    0.939E-04
DAV:  14    -0.573454872645E+01   -0.13607E-06   -0.15428E-08  8928   0.134E-03
   1 F= -.57345487E+01 E0= -.57345487E+01  d E =0.000000E+00  mag=     0.6529
