       N       E                     dE             d eps       ncg     rms          rms(c)
RMM:   1     0.245428174866E+04    0.24543E+04   -0.16299E+05  8960   0.112E+03
RMM:   2    -0.377169513026E+02   -0.24920E+04   -0.26458E+04  8960   0.235E+02
RMM:   3    -0.312796475191E+03   -0.27508E+03   -0.23964E+03  8960   0.943E+01
RMM:   4    -0.403318303661E+03   -0.90522E+02   -0.29336E+02  8960   0.389E+01
RMM:   5    -0.408690684887E+03   -0.53724E+01   -0.32638E+01  8960   0.108E+01
RMM:   6    -0.409229205962E+03   -0.53852E+00   -0.46216E+00  8960   0.475E+00
RMM:   7    -0.409295781956E+03   -0.66576E-01   -0.70324E-01  8960   0.164E+00
RMM:   8    -0.409306827454E+03   -0.11045E-01   -0.11577E-01  8960   0.763E-01
RMM:   9    -0.409308926639E+03   -0.20992E-02   -0.22921E-02 17932   0.287E-01
RMM:  10    -0.409308974005E+03   -0.47366E-04   -0.74026E-04 17939   0.425E-02
RMM:  11    -0.409308976207E+03   -0.22016E-05   -0.22711E-05 17845   0.128E-02
RMM:  12    -0.409308976217E+03   -0.98662E-08   -0.59480E-07 10627   0.150E-03    0.737E+01
RMM:  13    -0.370711261207E+03    0.38598E+02   -0.51693E+02 17920   0.570E+01    0.410E+01
RMM:  14    -0.351551150897E+03    0.19160E+02   -0.88644E+01 17920   0.240E+01    0.128E+01
RMM:  15    -0.355424772377E+03   -0.38736E+01   -0.78693E-01 17920   0.151E+00    0.463E+00
RMM:  16    -0.356310881764E+03   -0.88611E+00   -0.13015E+00 17920   0.184E+00    0.193E+00
RMM:  17    -0.356295945638E+03    0.14936E-01   -0.21542E-02 17920   0.247E-01    0.606E-01
RMM:  18    -0.356287361953E+03    0.85837E-02   -0.48105E-03 17920   0.118E-01    0.269E-01
RMM:  19    -0.356287706700E+03   -0.34475E-03   -0.36919E-04 17920   0.444E-02    0.121E-01
RMM:  20    -0.356287680994E+03    0.25705E-04   -0.34594E-05 17899   0.119E-02    0.186E-02
RMM:  21    -0.356287658909E+03    0.22085E-04   -0.99449E-07 10211   0.195E-03    0.173E-02
RMM:  22    -0.356287629917E+03    0.28992E-04   -0.12026E-06 10001   0.230E-03    0.230E-03
RMM:  23    -0.356287628075E+03    0.18420E-05   -0.83786E-08  8673   0.628E-04    0.294E-04
RMM:  24    -0.356287628719E+03   -0.64436E-06   -0.10196E-09  2160   0.182E-04
   1 F= -.35628763E+03 E0= -.35624582E+03  d E =-.125425E+00  mag=    40.1394
 Found     1 degrees of freedom:
       N       E                     dE             d eps       ncg     rms          rms(c)
RMM:   1    -0.356289168233E+03   -0.15402E-02   -0.43283E+00 32256   0.287E+00    0.836E-01
RMM:   2    -0.356403407739E+03   -0.11424E+00   -0.10828E-01 32256   0.708E-01    0.547E+00
RMM:   3    -0.356289424134E+03    0.11398E+00   -0.41181E-02 32256   0.463E-01    0.137E+00
RMM:   4    -0.356284511465E+03    0.49127E-02   -0.41206E-03 32256   0.139E-01    0.580E-01
RMM:   5    -0.356285525651E+03   -0.10142E-02   -0.12813E-03 32256   0.790E-02    0.737E-01
RMM:   6    -0.356283889873E+03    0.16358E-02   -0.75253E-04 32256   0.634E-02    0.225E-01
RMM:   7    -0.356283879253E+03    0.10620E-04   -0.27064E-04 32256   0.360E-02    0.233E-01
RMM:   8    -0.356283955246E+03   -0.75993E-04   -0.31214E-04 32256   0.378E-02    0.318E-01
RMM:   9    -0.356283671989E+03    0.28326E-03   -0.20060E-04 32256   0.316E-02    0.150E-01
RMM:  10    -0.356283684391E+03   -0.12402E-04   -0.50092E-05 32256   0.156E-02    0.163E-01
RMM:  11    -0.356283602343E+03    0.82048E-04   -0.35422E-05 32250   0.133E-02    0.208E-02
RMM:  12    -0.356283607321E+03   -0.49778E-05   -0.58354E-06 29386   0.539E-03    0.427E-02
RMM:  13    -0.356283602581E+03    0.47402E-05   -0.28365E-06 22886   0.404E-03    0.216E-02
RMM:  14    -0.356283601886E+03    0.69452E-06   -0.91669E-07 18061   0.223E-03
   2 F= -.35628360E+03 E0= -.35624182E+03  d E =-.125354E+00  mag=    40.1393
       N       E                     dE             d eps       ncg     rms          rms(c)
RMM:   1    -0.356289981632E+03   -0.63791E-02   -0.26019E+00 32256   0.206E+00    0.462E-01
RMM:   2    -0.356328897182E+03   -0.38916E-01   -0.41839E-02 32256   0.444E-01    0.343E+00
RMM:   3    -0.356288228514E+03    0.40669E-01   -0.13743E-02 32256   0.266E-01    0.729E-01
RMM:   4    -0.356286902335E+03    0.13262E-02   -0.11482E-03 32256   0.725E-02    0.329E-01
RMM:   5    -0.356287181090E+03   -0.27875E-03   -0.37537E-04 32256   0.425E-02    0.404E-01
RMM:   6    -0.356286695213E+03    0.48588E-03   -0.22228E-04 32256   0.344E-02    0.122E-01
RMM:   7    -0.356286688655E+03    0.65577E-05   -0.72965E-05 32256   0.187E-02    0.115E-01
RMM:   8    -0.356286708164E+03   -0.19509E-04   -0.79779E-05 32256   0.192E-02    0.152E-01
RMM:   9    -0.356286642522E+03    0.65642E-04   -0.45951E-05 32256   0.151E-02    0.735E-02
RMM:  10    -0.356286643710E+03   -0.11883E-05   -0.78614E-06 30789   0.618E-03    0.773E-02
RMM:  11    -0.356286625830E+03    0.17880E-04   -0.76273E-06 30143   0.617E-03    0.121E-02
RMM:  12    -0.356286625886E+03   -0.55938E-07   -0.81261E-07 17909   0.206E-03
   3 F= -.35628663E+03 E0= -.35624482E+03  d E =-.125406E+00  mag=    40.1395
       N       E                     dE             d eps       ncg     rms          rms(c)
RMM:   1    -0.356290422646E+03   -0.37968E-02   -0.35556E+00 32256   0.256E+00    0.735E-01
RMM:   2    -0.356371368344E+03   -0.80946E-01   -0.77300E-02 32256   0.606E-01    0.472E+00
RMM:   3    -0.356290268292E+03    0.81100E-01   -0.29141E-02 32256   0.389E-01    0.110E+00
RMM:   4    -0.356287517739E+03    0.27506E-02   -0.32852E-03 32256   0.124E-01    0.561E-01
RMM:   5    -0.356288130788E+03   -0.61305E-03   -0.10145E-03 32256   0.713E-02    0.647E-01
RMM:   6    -0.356286860857E+03    0.12699E-02   -0.61355E-04 32256   0.571E-02    0.197E-01
RMM:   7    -0.356286936507E+03   -0.75651E-04   -0.28127E-04 32256   0.367E-02    0.260E-01
RMM:   8    -0.356286925586E+03    0.10922E-04   -0.30374E-04 32256   0.373E-02    0.295E-01
RMM:   9    -0.356286683285E+03    0.24230E-03   -0.16180E-04 32256   0.283E-02    0.135E-01
RMM:  10    -0.356286689994E+03   -0.67096E-05   -0.38280E-05 32256   0.136E-02    0.144E-01
RMM:  11    -0.356286626317E+03    0.63677E-04   -0.27519E-05 32239   0.118E-02    0.187E-02
RMM:  12    -0.356286629423E+03   -0.31056E-05   -0.38405E-06 26098   0.440E-03    0.342E-02
RMM:  13    -0.356286626453E+03    0.29700E-05   -0.18224E-06 19351   0.334E-03    0.173E-02
RMM:  14    -0.356286625845E+03    0.60785E-06   -0.71407E-07 17711   0.200E-03
   4 F= -.35628663E+03 E0= -.35624482E+03  d E =-.125407E+00  mag=    40.1395
       N       E                     dE             d eps       ncg     rms          rms(c)
RMM:   1    -0.356286943872E+03   -0.31742E-03   -0.26072E+00 32256   0.208E+00    0.472E-01
RMM:   2    -0.356327713138E+03   -0.40769E-01   -0.43759E-02 32256   0.459E-01    0.348E+00
RMM:   3    -0.356285270882E+03    0.42442E-01   -0.14524E-02 32256   0.276E-01    0.743E-01
RMM:   4    -0.356283894657E+03    0.13762E-02   -0.11721E-03 32256   0.733E-02    0.333E-01
RMM:   5    -0.356284133154E+03   -0.23850E-03   -0.35478E-04 32256   0.414E-02    0.390E-01
RMM:   6    -0.356283685710E+03    0.44744E-03   -0.20413E-04 32256   0.330E-02    0.127E-01
RMM:   7    -0.356283675548E+03    0.10163E-04   -0.69869E-05 32256   0.183E-02    0.120E-01
RMM:   8    -0.356283685196E+03   -0.96486E-05   -0.86165E-05 32256   0.200E-02    0.153E-01
RMM:   9    -0.356283617548E+03    0.67648E-04   -0.54609E-05 32256   0.164E-02    0.717E-02
RMM:  10    -0.356283630791E+03   -0.13242E-04   -0.13949E-05 32091   0.832E-03    0.997E-02
RMM:  11    -0.356283601457E+03    0.29333E-04   -0.96208E-06 31260   0.705E-03    0.115E-02
RMM:  12    -0.356283602780E+03   -0.13224E-05   -0.16749E-06 19043   0.292E-03    0.223E-02
RMM:  13    -0.356283601368E+03    0.14113E-05   -0.94521E-07 17966   0.249E-03    0.925E-03
RMM:  14    -0.356283601338E+03    0.30632E-07   -0.20009E-07 17048   0.104E-03
   5 F= -.35628360E+03 E0= -.35624182E+03  d E =-.125354E+00  mag=    40.1393
