 running on    1 total cores
 distrk:  each k-point on    1 cores,    1 groups
 distr:  one band on    1 cores,    1 groups
 using from now: INCAR     
 vasp.5.4.1 05Feb16 (build Oct 12 2016 17:31:35) complex                        
  
 POSCAR found type information on POSCAR  Ni
 POSCAR found :  1 types and       1 ions
 scaLAPACK will be used
 LDA part: xc-table for Pade appr. of Perdew
 POSCAR, INCAR and KPOINTS ok, starting setup
 FFT: planning ...
 WAVECAR not read
 entering main loop
       N       E                     dE             d eps       ncg     rms          rms(c)
DAV:   1     0.121866519101E+03    0.12187E+03   -0.10764E+04 13956   0.177E+03
DAV:   2    -0.430373036994E+01   -0.12617E+03   -0.11912E+03 13717   0.432E+02
DAV:   3    -0.641648521291E+01   -0.21128E+01   -0.20993E+01 15177   0.667E+01
DAV:   4    -0.643307048087E+01   -0.16585E-01   -0.16584E-01 14381   0.550E+00
DAV:   5    -0.643339782477E+01   -0.32734E-03   -0.32733E-03 15227   0.771E-01    0.820E+00
DAV:   6    -0.576655757000E+01    0.66684E+00   -0.39617E+00 13442   0.534E+01    0.423E+00
DAV:   7    -0.552215973854E+01    0.24440E+00   -0.65288E-01 13562   0.210E+01    0.779E-01
DAV:   8    -0.550940126398E+01    0.12758E-01   -0.63399E-03 19314   0.121E+00    0.242E-01
DAV:   9    -0.550860436401E+01    0.79690E-03   -0.39570E-04 17523   0.350E-01    0.484E-02
DAV:  10    -0.550863122068E+01   -0.26857E-04   -0.29026E-05 14474   0.983E-02    0.162E-02
DAV:  11    -0.550864134826E+01   -0.10128E-04   -0.20358E-06 12059   0.300E-02    0.729E-03
DAV:  12    -0.550863756468E+01    0.37836E-05   -0.28767E-07  6986   0.939E-03    0.986E-04
DAV:  13    -0.550863743197E+01    0.13271E-06   -0.55053E-08  6706   0.377E-03
   1 F= -.55086374E+01 E0= -.55086374E+01  d E =0.000000E+00  mag=     0.5689
 writing wavefunctions
