       N       E                     dE             d eps       ncg     rms          rms(c)
DAV:   1     0.113042032674E+03    0.11304E+03   -0.91414E+03 17120   0.133E+03
DAV:   2    -0.428226075101E+01   -0.11732E+03   -0.10948E+03 18168   0.354E+02
DAV:   3    -0.642250634276E+01   -0.21402E+01   -0.21338E+01 19976   0.545E+01
DAV:   4    -0.643199674019E+01   -0.94904E-02   -0.94901E-02 19632   0.339E+00
DAV:   5    -0.643208426455E+01   -0.87524E-04   -0.87536E-04 19544   0.305E-01    0.816E+00
DAV:   6    -0.576448332208E+01    0.66760E+00   -0.27034E+00 19944   0.428E+01    0.416E+00
DAV:   7    -0.552692345356E+01    0.23756E+00   -0.47100E-01 18640   0.164E+01    0.779E-01
DAV:   8    -0.551375626501E+01    0.13167E-01   -0.46300E-03 22848   0.906E-01    0.247E-01
DAV:   9    -0.551298601102E+01    0.77025E-03   -0.33297E-04 24120   0.273E-01    0.477E-02
DAV:  10    -0.551301468876E+01   -0.28678E-04   -0.20101E-05 17984   0.604E-02    0.155E-02
DAV:  11    -0.551302435901E+01   -0.96702E-05   -0.11420E-06 15184   0.200E-02    0.730E-03
DAV:  12    -0.551302089444E+01    0.34646E-05   -0.35556E-07  9584   0.914E-03    0.102E-03
DAV:  13    -0.551302083045E+01    0.63985E-07   -0.48994E-08  8664   0.296E-03
   1 F= -.55130208E+01 E0= -.55130208E+01  d E =0.000000E+00  mag=     0.5694
