       N       E                     dE             d eps       ncg     rms          rms(c)
DAV:   1     0.131529536429E+05    0.13153E+05   -0.56650E+05 12224   0.180E+03
DAV:   2     0.645585619726E+03   -0.12507E+05   -0.12146E+05 10336   0.614E+02
DAV:   3    -0.357663854203E+03   -0.10032E+04   -0.82504E+03 10734   0.182E+02
DAV:   4    -0.410895153778E+03   -0.53231E+02   -0.51817E+02 11104   0.403E+01
DAV:   5    -0.411726510694E+03   -0.83136E+00   -0.83053E+00 10936   0.487E+00    0.676E+01
DAV:   6    -0.397731651541E+03    0.13995E+02   -0.71323E+02 10788   0.724E+01    0.641E+01
DAV:   7    -0.351708616289E+03    0.46023E+02   -0.17026E+02 10752   0.352E+01    0.589E+00
DAV:   8    -0.351991231332E+03   -0.28262E+00   -0.17506E+00 10776   0.258E+00    0.324E+00
DAV:   9    -0.351933067859E+03    0.58163E-01   -0.34714E-01 11018   0.980E-01    0.852E-01
DAV:  10    -0.351938461419E+03   -0.53936E-02   -0.15272E-02 11274   0.215E-01    0.334E-01
DAV:  11    -0.351941318992E+03   -0.28576E-02   -0.70455E-03 10854   0.184E-01    0.124E-01
DAV:  12    -0.351941496476E+03   -0.17748E-03   -0.70495E-04 11150   0.507E-02    0.249E-02
DAV:  13    -0.351941484254E+03    0.12222E-04   -0.66443E-05 11260   0.189E-02    0.163E-02
DAV:  14    -0.351941469771E+03    0.14483E-04   -0.33580E-06  7580   0.361E-03    0.102E-02
DAV:  15    -0.351941460034E+03    0.97370E-05   -0.31770E-06  7370   0.455E-03    0.755E-04
DAV:  16    -0.351941460182E+03   -0.14808E-06   -0.13049E-07  5436   0.775E-04
   1 F= -.35194146E+03 E0= -.35189233E+03  d E =-.147399E+00  mag=    46.1716
 Found     1 degrees of freedom:
       N       E                     dE             d eps       ncg     rms          rms(c)
DAV:   1    -0.351605735919E+03    0.33572E+00   -0.98065E+00 20442   0.285E+01    0.109E+00
DAV:   2    -0.351968807116E+03   -0.36307E+00   -0.33191E+00 15932   0.292E+00    0.409E+00
DAV:   3    -0.351944357457E+03    0.24450E-01   -0.16128E-01 19298   0.159E+00    0.155E+00
DAV:   4    -0.351957171995E+03   -0.12815E-01   -0.26365E-02 19114   0.127E+00    0.286E+00
DAV:   5    -0.351941086927E+03    0.16085E-01   -0.10849E-02 16786   0.939E-01    0.594E-01
DAV:   6    -0.351940741632E+03    0.34530E-03   -0.18009E-03 19944   0.235E-01    0.311E-01
DAV:   7    -0.351940692274E+03    0.49359E-04   -0.43712E-04 17410   0.133E-01    0.329E-01
DAV:   8    -0.351940490291E+03    0.20198E-03   -0.23576E-04 17048   0.122E-01    0.253E-01
DAV:   9    -0.351940569258E+03   -0.78967E-04   -0.28690E-04 17408   0.144E-01    0.358E-01
DAV:  10    -0.351940273495E+03    0.29576E-03   -0.43118E-04 18632   0.178E-01    0.258E-01
DAV:  11    -0.351940167421E+03    0.10607E-03   -0.21447E-04 21112   0.946E-02    0.869E-02
DAV:  12    -0.351940195814E+03   -0.28394E-04   -0.76565E-05 21392   0.657E-02    0.133E-01
DAV:  13    -0.351940160297E+03    0.35518E-04   -0.51941E-05 18088   0.584E-02    0.351E-02
DAV:  14    -0.351940171415E+03   -0.11118E-04   -0.18193E-05 20088   0.310E-02    0.759E-02
DAV:  15    -0.351940161037E+03    0.10378E-04   -0.10807E-05 16960   0.283E-02    0.191E-02
DAV:  16    -0.351940160983E+03    0.54657E-07   -0.20952E-06  9168   0.104E-02
   2 F= -.35194016E+03 E0= -.35189103E+03  d E =-.147387E+00  mag=    46.1716
       N       E                     dE             d eps       ncg     rms          rms(c)
DAV:   1    -0.351799797677E+03    0.14036E+00   -0.48160E+00 20676   0.177E+01    0.394E-01
DAV:   2    -0.351943511567E+03   -0.14371E+00   -0.13789E+00 15694   0.181E+00    0.177E+00
DAV:   3    -0.351941212898E+03    0.22987E-02   -0.48178E-02 19292   0.689E-01    0.451E-01
DAV:   4    -0.351943337902E+03   -0.21250E-02   -0.51218E-03 19242   0.478E-01    0.104E+00
DAV:   5    -0.351941255171E+03    0.20827E-02   -0.17775E-03 16744   0.371E-01    0.216E-01
DAV:   6    -0.351941204048E+03    0.51123E-04   -0.27134E-04 19656   0.941E-02    0.973E-02
DAV:   7    -0.351941207674E+03   -0.36255E-05   -0.75296E-05 17792   0.591E-02    0.121E-01
DAV:   8    -0.351941175827E+03    0.31846E-04   -0.48684E-05 17244   0.577E-02    0.795E-02
DAV:   9    -0.351941208825E+03   -0.32998E-04   -0.62052E-05 17480   0.689E-02    0.153E-01
DAV:  10    -0.351941164385E+03    0.44440E-04   -0.65441E-05 18656   0.713E-02    0.901E-02
DAV:  11    -0.351941151144E+03    0.13241E-04   -0.26850E-05 19546   0.351E-02    0.290E-02
DAV:  12    -0.351941154026E+03   -0.28822E-05   -0.87889E-06 17528   0.216E-02    0.402E-02
DAV:  13    -0.351941150996E+03    0.30298E-05   -0.48160E-06 14498   0.177E-02    0.104E-02
DAV:  14    -0.351941151430E+03   -0.43327E-06   -0.91196E-07  8016   0.736E-03
   3 F= -.35194115E+03 E0= -.35189202E+03  d E =-.147395E+00  mag=    46.1717
       N       E                     dE             d eps       ncg     rms          rms(c)
DAV:   1    -0.351648757091E+03    0.29239E+00   -0.87562E+00 20684   0.261E+01    0.981E-01
DAV:   2    -0.351962507883E+03   -0.31375E+00   -0.28895E+00 15888   0.270E+00    0.367E+00
DAV:   3    -0.351944511029E+03    0.17997E-01   -0.13597E-01 18738   0.145E+00    0.141E+00
DAV:   4    -0.351954838784E+03   -0.10328E-01   -0.21710E-02 19226   0.114E+00    0.257E+00
DAV:   5    -0.351941845880E+03    0.12993E-01   -0.88929E-03 16796   0.849E-01    0.518E-01
DAV:   6    -0.351941601519E+03    0.24436E-03   -0.14833E-03 20100   0.208E-01    0.272E-01
DAV:   7    -0.351941558641E+03    0.42878E-04   -0.35163E-04 17410   0.120E-01    0.289E-01
DAV:   8    -0.351941404024E+03    0.15462E-03   -0.19980E-04 17028   0.114E-01    0.224E-01
DAV:   9    -0.351941521684E+03   -0.11766E-03   -0.29169E-04 17288   0.147E-01    0.359E-01
DAV:  10    -0.351941249522E+03    0.27216E-03   -0.41113E-04 18888   0.173E-01    0.244E-01
DAV:  11    -0.351941153203E+03    0.96319E-04   -0.18586E-04 20416   0.897E-02    0.757E-02
DAV:  12    -0.351941180548E+03   -0.27345E-04   -0.67619E-05 21304   0.610E-02    0.122E-01
DAV:  13    -0.351941150873E+03    0.29675E-04   -0.43319E-05 17344   0.536E-02    0.330E-02
DAV:  14    -0.351941158461E+03   -0.75879E-05   -0.13785E-05 19688   0.267E-02    0.651E-02
DAV:  15    -0.351941151044E+03    0.74173E-05   -0.78470E-06 15792   0.240E-02    0.169E-02
DAV:  16    -0.351941150933E+03    0.11068E-06   -0.14961E-06  8328   0.919E-03
   4 F= -.35194115E+03 E0= -.35189202E+03  d E =-.147393E+00  mag=    46.1717
       N       E                     dE             d eps       ncg     rms          rms(c)
DAV:   1    -0.351791018482E+03    0.15013E+00   -0.47301E+00 20602   0.179E+01    0.574E-01
DAV:   2    -0.351944227411E+03   -0.15321E+00   -0.14697E+00 15782   0.189E+00    0.199E+00
DAV:   3    -0.351941737500E+03    0.24899E-02   -0.59667E-02 19008   0.863E-01    0.911E-01
DAV:   4    -0.351944672308E+03   -0.29348E-02   -0.73724E-03 18820   0.654E-01    0.147E+00
DAV:   5    -0.351940396258E+03    0.42760E-02   -0.28408E-03 16796   0.502E-01    0.270E-01
DAV:   6    -0.351940351177E+03    0.45082E-04   -0.43949E-04 20056   0.108E-01    0.169E-01
DAV:   7    -0.351940321862E+03    0.29315E-04   -0.98722E-05 17174   0.645E-02    0.170E-01
DAV:   8    -0.351940271843E+03    0.50019E-04   -0.59237E-05 17096   0.613E-02    0.138E-01
DAV:   9    -0.351940297200E+03   -0.25358E-04   -0.87509E-05 17472   0.816E-02    0.207E-01
DAV:  10    -0.351940168070E+03    0.12913E-03   -0.12325E-04 18728   0.942E-02    0.729E-02
DAV:  11    -0.351940165704E+03    0.23660E-05   -0.47650E-05 20504   0.362E-02    0.532E-02
DAV:  12    -0.351940170554E+03   -0.48494E-05   -0.18427E-05 19504   0.327E-02    0.723E-02
DAV:  13    -0.351940160893E+03    0.96603E-05   -0.13024E-05 17352   0.290E-02    0.187E-02
DAV:  14    -0.351940162677E+03   -0.17840E-05   -0.33717E-06 13056   0.136E-02    0.309E-02
DAV:  15    -0.351940160908E+03    0.17697E-05   -0.23017E-06  8560   0.125E-02    0.772E-03
DAV:  16    -0.351940161034E+03   -0.12689E-06   -0.57662E-07  8046   0.504E-03
   5 F= -.35194016E+03 E0= -.35189103E+03  d E =-.147389E+00  mag=    46.1716
