 vasp.5.4.1 05Feb16 (build Oct 12 2016 17:31:35) complex                        
  
 executed on           IFC91_ompi date 2020.09.07  16:21:12
 running on    1 total cores
 distrk:  each k-point on    1 cores,    1 groups
 distr:  one band on NCORES_PER_BAND=   1 cores,    1 groups


--------------------------------------------------------------------------------------------------------


 INCAR:
 POTCAR:   PAW_PBE Ni_pv 06Sep2000                
 POTCAR:   PAW_PBE Ni_pv 06Sep2000                
  local pseudopotential read in
  partial core-charges read in
  atomic valenz-charges read in
  non local Contribution for L=           1  read in
    real space projection operators read in
  non local Contribution for L=           1  read in
    real space projection operators read in
  non local Contribution for L=           2  read in
    real space projection operators read in
  non local Contribution for L=           2  read in
    real space projection operators read in
  non local Contribution for L=           0  read in
    real space projection operators read in
  non local Contribution for L=           0  read in
    real space projection operators read in
    PAW grid and wavefunctions read in
 
   number of l-projection  operators is LMAX  =           6
   number of lm-projection operators is LMMAX =          18
 
 Optimization of the real space projectors (new method)

 maximal supplied QI-value         = 18.90
 optimisation between [QCUT,QGAM] = [  9.83, 19.65] = [ 27.04,108.16] Ry 
 Optimized for a Real-space Cutoff    1.44 Angstroem

   l    n(q)    QCUT    max X(q) W(low)/X(q) W(high)/X(q)  e(spline) 
   1      8     9.827     3.231    0.38E-04    0.39E-04    0.57E-07
   1      8     9.827     4.241    0.57E-04    0.19E-03    0.30E-06
   2      7     9.827     3.566    0.29E-04    0.66E-04    0.48E-07
   2      7     9.827    20.429    0.17E-03    0.37E-03    0.30E-06
   0      8     9.827    19.799    0.18E-04    0.76E-05    0.78E-08
   0      8     9.827    52.283    0.39E-04    0.68E-04    0.44E-07
 PAW_PBE Ni_pv 06Sep2000                :
 energy of atom  1       EATOM=-3500.3496
 kinetic energy error for atom=    0.1419 (will be added to EATOM!!)
 
 
 POSCAR: Supercell by Yi Wang                    
  positions in direct lattice
  No initial velocities read in
 exchange correlation table for  LEXCH =        8
   RHO(1)=    0.500       N(1)  =     2000
   RHO(2)=  100.500       N(2)  =     4000
 


--------------------------------------------------------------------------------------------------------


 ion  position               nearest neighbor table
   1  0.000  0.000  0.000-
   2  0.000  0.000  0.250-
   3  0.000  0.000  0.500-
   4  0.000  0.000  0.750-
   5  0.000  0.250  0.000-
   6  0.000  0.250  0.250-
   7  0.000  0.250  0.500-
   8  0.000  0.250  0.750-
   9  0.000  0.500  0.000-
  10  0.000  0.500  0.250-
  11  0.000  0.500  0.500-
  12  0.000  0.500  0.750-
  13  0.000  0.750  0.000-
  14  0.000  0.750  0.250-
  15  0.000  0.750  0.500-
  16  0.000  0.750  0.750-
  17  0.250  0.000  0.000-
  18  0.250  0.000  0.250-
  19  0.250  0.000  0.500-
  20  0.250  0.000  0.750-
  21  0.250  0.250  0.000-
  22  0.250  0.250  0.250-
  23  0.250  0.250  0.500-
  24  0.250  0.250  0.750-
  25  0.250  0.500  0.000-
  26  0.250  0.500  0.250-
  27  0.250  0.500  0.500-
  28  0.250  0.500  0.750-
  29  0.250  0.750  0.000-
  30  0.250  0.750  0.250-
  31  0.250  0.750  0.500-
  32  0.250  0.750  0.750-
  33  0.500  0.000  0.000-
  34  0.500  0.000  0.250-
  35  0.500  0.000  0.500-
  36  0.500  0.000  0.750-
  37  0.500  0.250  0.000-
  38  0.500  0.250  0.250-
  39  0.500  0.250  0.500-
  40  0.500  0.250  0.750-
  41  0.500  0.500  0.000-
  42  0.500  0.500  0.250-
  43  0.500  0.500  0.500-
  44  0.500  0.500  0.750-
  45  0.500  0.750  0.000-
  46  0.500  0.750  0.250-
  47  0.500  0.750  0.500-
  48  0.500  0.750  0.750-
  49  0.750  0.000  0.000-
  50  0.750  0.000  0.250-
  51  0.750  0.000  0.500-
  52  0.750  0.000  0.750-
  53  0.750  0.250  0.000-
  54  0.750  0.250  0.250-
  55  0.750  0.250  0.500-
  56  0.750  0.250  0.750-
  57  0.750  0.500  0.000-
  58  0.750  0.500  0.250-
  59  0.750  0.500  0.500-
  60  0.750  0.500  0.750-
  61  0.750  0.750  0.000-
  62  0.750  0.750  0.250-
  63  0.750  0.750  0.500-
  64  0.750  0.750  0.750-
 
  LATTYP: Found a face centered cubic cell.
 ALAT       =    15.1575000000
  
  Lattice vectors:
  
 A1 = (   0.0000000000,   7.5787500000,   7.5787500000)
 A2 = (   7.5787500000,   0.0000000000,   7.5787500000)
 A3 = (   7.5787500000,   7.5787500000,   0.0000000000)


Analysis of symmetry for initial positions (statically):
=====================================================================
 Subroutine PRICEL returns following result:
 
  LATTYP: Found a face centered cubic cell.
 ALAT       =     3.7893750000
  
  Lattice vectors:
  
 A1 = (   0.0000000000,   1.8946875000,   1.8946875000)
 A2 = (   1.8946875000,   0.0000000000,   1.8946875000)
 A3 = (   1.8946875000,   1.8946875000,   0.0000000000)
 
  64 primitive cells build up your supercell.
 

 Routine SETGRP: Setting up the symmetry group for a 
 face centered cubic supercell.


 Subroutine GETGRP returns: Found 48 space group operations
 (whereof 48 operations were pure point group operations)
 out of a pool of 48 trial point group operations.


The static configuration has the point symmetry O_h .


Analysis of symmetry for dynamics (positions and initial velocities):
=====================================================================
 Subroutine PRICEL returns following result:
 
  LATTYP: Found a face centered cubic cell.
 ALAT       =     3.7893750000
  
  Lattice vectors:
  
 A1 = (   0.0000000000,   1.8946875000,   1.8946875000)
 A2 = (   1.8946875000,   0.0000000000,   1.8946875000)
 A3 = (   1.8946875000,   1.8946875000,   0.0000000000)
 
  64 primitive cells build up your supercell.
 

 Routine SETGRP: Setting up the symmetry group for a 
 face centered cubic supercell.


 Subroutine GETGRP returns: Found 48 space group operations
 (whereof 48 operations were pure point group operations)
 out of a pool of 48 trial point group operations.


The dynamic configuration has the point symmetry O_h .


Analysis of structural, dynamic, and magnetic symmetry:
=====================================================================
 Subroutine PRICEL returns following result:
 
  LATTYP: Found a face centered cubic cell.
 ALAT       =     3.7893750000
  
  Lattice vectors:
  
 A1 = (   0.0000000000,   1.8946875000,   1.8946875000)
 A2 = (   1.8946875000,   0.0000000000,   1.8946875000)
 A3 = (   1.8946875000,   1.8946875000,   0.0000000000)
 
  64 primitive cells build up your supercell.
 

 Routine SETGRP: Setting up the symmetry group for a 
 face centered cubic supercell.


 Subroutine GETGRP returns: Found 48 space group operations
 (whereof 48 operations were pure point group operations)
 out of a pool of 48 trial point group operations.


The magnetic configuration has the point symmetry O_h .


 Subroutine INISYM returns: Found 48 space group operations
 (whereof 48 operations are pure point group operations),
 and found    64 'primitive' translations

 
 
 KPOINTS: Zr 15x15x15                             

Automatic generation of k-mesh.
Space group operators:
 irot       det(A)        alpha          n_x          n_y          n_z        tau_x        tau_y        tau_z
    1     1.000000     0.000001     1.000000     0.000000     0.000000     0.000000     0.000000     0.000000
    2    -1.000000     0.000001     1.000000     0.000000     0.000000     0.000000     0.000000     0.000000
    3     1.000000   120.000000    -0.577350    -0.577350    -0.577350     0.000000     0.000000     0.000000
    4    -1.000000   120.000000    -0.577350    -0.577350    -0.577350     0.000000     0.000000     0.000000
    5     1.000000   120.000000     0.577350     0.577350     0.577350     0.000000     0.000000     0.000000
    6    -1.000000   120.000000     0.577350     0.577350     0.577350     0.000000     0.000000     0.000000
    7     1.000000    90.000000     0.000000     0.000000    -1.000000     0.000000     0.000000     0.000000
    8    -1.000000    90.000000     0.000000     0.000000    -1.000000     0.000000     0.000000     0.000000
    9     1.000000   180.000000     0.000000     0.707107     0.707107     0.000000     0.000000     0.000000
   10    -1.000000   180.000000     0.000000     0.707107     0.707107     0.000000     0.000000     0.000000
   11     1.000000    90.000000     0.000000     1.000000     0.000000     0.000000     0.000000     0.000000
   12    -1.000000    90.000000     0.000000     1.000000     0.000000     0.000000     0.000000     0.000000
   13     1.000000   180.000000     0.000000     0.000000     1.000000     0.000000     0.000000     0.000000
   14    -1.000000   180.000000     0.000000     0.000000     1.000000     0.000000     0.000000     0.000000
   15     1.000000   120.000000    -0.577350     0.577350     0.577350     0.000000     0.000000     0.000000
   16    -1.000000   120.000000    -0.577350     0.577350     0.577350     0.000000     0.000000     0.000000
   17     1.000000   120.000000    -0.577350     0.577350    -0.577350     0.000000     0.000000     0.000000
   18    -1.000000   120.000000    -0.577350     0.577350    -0.577350     0.000000     0.000000     0.000000
   19     1.000000    90.000000     0.000000     0.000000     1.000000     0.000000     0.000000     0.000000
   20    -1.000000    90.000000     0.000000     0.000000     1.000000     0.000000     0.000000     0.000000
   21     1.000000    90.000000    -1.000000     0.000000     0.000000     0.000000     0.000000     0.000000
   22    -1.000000    90.000000    -1.000000     0.000000     0.000000     0.000000     0.000000     0.000000
   23     1.000000   180.000000     0.707107     0.000000     0.707107     0.000000     0.000000     0.000000
   24    -1.000000   180.000000     0.707107     0.000000     0.707107     0.000000     0.000000     0.000000
   25     1.000000   120.000000     0.577350    -0.577350     0.577350     0.000000     0.000000     0.000000
   26    -1.000000   120.000000     0.577350    -0.577350     0.577350     0.000000     0.000000     0.000000
   27     1.000000   120.000000    -0.577350    -0.577350     0.577350     0.000000     0.000000     0.000000
   28    -1.000000   120.000000    -0.577350    -0.577350     0.577350     0.000000     0.000000     0.000000
   29     1.000000   180.000000     1.000000     0.000000     0.000000     0.000000     0.000000     0.000000
   30    -1.000000   180.000000     1.000000     0.000000     0.000000     0.000000     0.000000     0.000000
   31     1.000000    90.000000     0.000000    -1.000000     0.000000     0.000000     0.000000     0.000000
   32    -1.000000    90.000000     0.000000    -1.000000     0.000000     0.000000     0.000000     0.000000
   33     1.000000   180.000000     0.707107     0.707107     0.000000     0.000000     0.000000     0.000000
   34    -1.000000   180.000000     0.707107     0.707107     0.000000     0.000000     0.000000     0.000000
   35     1.000000    90.000000     1.000000     0.000000     0.000000     0.000000     0.000000     0.000000
   36    -1.000000    90.000000     1.000000     0.000000     0.000000     0.000000     0.000000     0.000000
   37     1.000000   120.000000     0.577350    -0.577350    -0.577350     0.000000     0.000000     0.000000
   38    -1.000000   120.000000     0.577350    -0.577350    -0.577350     0.000000     0.000000     0.000000
   39     1.000000   180.000000     0.000000     1.000000     0.000000     0.000000     0.000000     0.000000
   40    -1.000000   180.000000     0.000000     1.000000     0.000000     0.000000     0.000000     0.000000
   41     1.000000   120.000000     0.577350     0.577350    -0.577350     0.000000     0.000000     0.000000
   42    -1.000000   120.000000     0.577350     0.577350    -0.577350     0.000000     0.000000     0.000000
   43     1.000000   180.000000     0.000000    -0.707107     0.707107     0.000000     0.000000     0.000000
   44    -1.000000   180.000000     0.000000    -0.707107     0.707107     0.000000     0.000000     0.000000
   45     1.000000   180.000000     0.707107    -0.707107     0.000000     0.000000     0.000000     0.000000
   46    -1.000000   180.000000     0.707107    -0.707107     0.000000     0.000000     0.000000     0.000000
   47     1.000000   180.000000     0.707107     0.000000    -0.707107     0.000000     0.000000     0.000000
   48    -1.000000   180.000000     0.707107     0.000000    -0.707107     0.000000     0.000000     0.000000
 
 Subroutine IBZKPT returns following result:
 ===========================================
 
 Found      4 irreducible k-points:
 
 Following reciprocal coordinates:
            Coordinates               Weight
  0.000000  0.000000  0.000000      1.000000
  0.333333  0.000000  0.000000      8.000000
  0.333333  0.333333  0.000000      6.000000
 -0.333333  0.333333  0.000000     12.000000
 
 Following cartesian coordinates:
            Coordinates               Weight
  0.000000  0.000000  0.000000      1.000000
 -0.021991  0.021991  0.021991      8.000000
  0.000000  0.000000  0.043983      6.000000
  0.043983 -0.043983  0.000000     12.000000
 
 
 Subroutine IBZKPT_HF returns following result:
 ==============================================
 
 Found     27 k-points in 1st BZ
 the following     27 k-points will be used (e.g. in the exchange kernel)
 Following reciprocal coordinates:   # in IRBZ
  0.000000  0.000000  0.000000    0.03703704   1 t-inv F
  0.333333  0.000000  0.000000    0.03703704   2 t-inv F
  0.333333  0.333333  0.000000    0.03703704   3 t-inv F
 -0.333333  0.333333  0.000000    0.03703704   4 t-inv F
 -0.333333  0.000000  0.000000    0.03703704   2 t-inv F
  0.000000  0.333333  0.000000    0.03703704   2 t-inv F
  0.000000 -0.333333  0.000000    0.03703704   2 t-inv F
  0.000000  0.000000  0.333333    0.03703704   2 t-inv F
  0.000000  0.000000 -0.333333    0.03703704   2 t-inv F
  0.333333  0.333333  0.333333    0.03703704   2 t-inv F
 -0.333333 -0.333333 -0.333333    0.03703704   2 t-inv F
 -0.333333 -0.333333  0.000000    0.03703704   3 t-inv F
  0.000000  0.333333  0.333333    0.03703704   3 t-inv F
  0.000000 -0.333333 -0.333333    0.03703704   3 t-inv F
  0.333333  0.000000  0.333333    0.03703704   3 t-inv F
 -0.333333  0.000000 -0.333333    0.03703704   3 t-inv F
  0.333333 -0.333333  0.000000    0.03703704   4 t-inv F
  0.000000 -0.333333  0.333333    0.03703704   4 t-inv F
  0.000000  0.333333 -0.333333    0.03703704   4 t-inv F
  0.333333  0.000000 -0.333333    0.03703704   4 t-inv F
 -0.333333  0.000000  0.333333    0.03703704   4 t-inv F
  0.333333  0.333333  0.666667    0.03703704   4 t-inv F
 -0.333333 -0.333333 -0.666667    0.03703704   4 t-inv F
 -0.333333 -0.666667 -0.333333    0.03703704   4 t-inv F
  0.333333  0.666667  0.333333    0.03703704   4 t-inv F
 -0.666667 -0.333333 -0.333333    0.03703704   4 t-inv F
  0.666667  0.333333  0.333333    0.03703704   4 t-inv F


--------------------------------------------------------------------------------------------------------




 Dimension of arrays:
   k-points           NKPTS =      4   k-points in BZ     NKDIM =      4   number of bands    NBANDS=    646
   number of dos      NEDOS =    301   number of ions     NIONS =     64
   non local maximal  LDIM  =      6   non local SUM 2l+1 LMDIM =     18
   total plane-waves  NPLWV = 343000
   max r-space proj   IRMAX =   4971   max aug-charges    IRDMAX=   8897
   dimension x,y,z NGX =    70 NGY =   70 NGZ =   70
   dimension x,y,z NGXF=   140 NGYF=  140 NGZF=  140
   support grid    NGXF=   140 NGYF=  140 NGZF=  140
   ions per type =              64
 NGX,Y,Z   is equivalent  to a cutoff of  10.86, 10.86, 10.86 a.u.
 NGXF,Y,Z  is equivalent  to a cutoff of  21.72, 21.72, 21.72 a.u.


 I would recommend the setting:
   dimension x,y,z NGX =    67 NGY =   67 NGZ =   67
 SYSTEM =  phonon of Zr bcc - omiga                
 POSCAR =  Supercell by Yi Wang                    

 Startparameter for this run:
   NWRITE =      0    write-flag & timer
   PREC   = a         normal or accurate (medium, high low for compatibility)
   ISTART =      0    job   : 0-new  1-cont  2-samecut
   ICHARG =      2    charge: 1-file 2-atom 10-const
   ISPIN  =      2    spin polarized calculation?
   LNONCOLLINEAR =      F non collinear calculations
   LSORBIT =      F    spin-orbit coupling
   INIWAV =      1    electr: 0-lowe 1-rand  2-diag
   LASPH  =      F    aspherical Exc in radial PAW
   METAGGA=      F    non-selfconsistent MetaGGA calc.

 Electronic Relaxation 1
   ENCUT  =  367.9 eV  27.04 Ry    5.20 a.u.  16.76 16.76 16.76*2*pi/ulx,y,z
   ENINI  =  367.9     initial cutoff
   ENAUG  =  703.4 eV  augmentation charge cutoff
   NELM   =     60;   NELMIN=  2; NELMDL= -5     # of ELM steps 
   EDIFF  = 0.1E-05   stopping-criterion for ELM
   LREAL  =      T    real-space projection
   NLSPLINE    = F    spline interpolate recip. space projectors
   LCOMPAT=      F    compatible to vasp.4.4
   GGA_COMPAT  = T    GGA compatible to vasp.4.4-vasp.4.6
   LMAXPAW     = -100 max onsite density
   LMAXMIX     =    2 max onsite mixed and CHGCAR
   VOSKOWN=      0    Vosko Wilk Nusair interpolation
   ROPT   =   -0.00025
 Ionic relaxation
   EDIFFG = 0.1E-04   stopping-criterion for IOM
   NSW    =    805    number of steps for IOM
   NBLOCK =      1;   KBLOCK =      1    inner block; outer block 
   IBRION =      6    ionic relax: 0-MD 1-quasi-New 2-CG
   NFREE  =      4    steps in history (QN), initial steepest desc. (CG)
   ISIF   =      2    stress and relaxation
   IWAVPR =     11    prediction:  0-non 1-charg 2-wave 3-comb
   ISYM   =      2    0-nonsym 1-usesym 2-fastsym
   LCORR  =      T    Harris-Foulkes like correction to forces

   POTIM  = 0.5000    time-step for ionic-motion
   TEIN   =    0.0    initial temperature
   TEBEG  =    0.0;   TEEND  =   0.0 temperature during run
   SMASS  =  -3.00    Nose mass-parameter (am)
   estimated Nose-frequenzy (Omega)   =  0.10E-29 period in steps =****** mass=  -0.263E-26a.u.
   SCALEE = 1.0000    scale energy and forces
   NPACO  =    256;   APACO  = 16.0  distance and # of slots for P.C.
   PSTRESS=    0.0 pullay stress

  Mass of Ions in am
   POMASS =  58.69
  Ionic Valenz
   ZVAL   =  16.00
  Atomic Wigner-Seitz radii
   RWIGS  =  -1.00
  virtual crystal weights 
   VCA    =   1.00
   NELECT =    1024.0000    total number of electrons
   NUPDOWN=      -1.0000    fix difference up-down

 DOS related values:
   EMIN   =  10.00;   EMAX   =-10.00  energy-range for DOS
   EFERMI =   0.00
   ISMEAR =     1;   SIGMA  =   0.20  broadening in eV -4-tet -1-fermi 0-gaus

 Electronic relaxation 2 (details)
   IALGO  =     38    algorithm
   LDIAG  =      T    sub-space diagonalisation (order eigenvalues)
   LSUBROT=      F    optimize rotation matrix (better conditioning)
   TURBO    =      0    0=normal 1=particle mesh
   IRESTART =      0    0=no restart 2=restart with 2 vectors
   NREBOOT  =      0    no. of reboots
   NMIN     =      0    reboot dimension
   EREF     =   0.00    reference energy to select bands
   IMIX   =      4    mixing-type and parameters
     AMIX     =   0.40;   BMIX     =  1.00
     AMIX_MAG =   1.60;   BMIX_MAG =  1.00
     AMIN     =   0.10
     WC   =   100.;   INIMIX=   1;  MIXPRE=   1;  MAXMIX= -45

 Intra band minimization:
   WEIMIN = 0.0010     energy-eigenvalue tresh-hold
   EBREAK =  0.39E-09  absolut break condition
   DEPER  =   0.30     relativ break condition  

   TIME   =   0.40     timestep for ELM

  volume/ion in A,a.u.               =      13.60        91.80
  Fermi-wavevector in a.u.,A,eV,Ry     =   1.728094  3.265623 40.631175  2.986307
  Thomas-Fermi vector in A             =   2.803093
 
 Write flags
   LWAVE  =      T    write WAVECAR
   LCHARG =      T    write CHGCAR
   LVTOT  =      F    write LOCPOT, total local potential
   LVHAR  =      F    write LOCPOT, Hartree potential only
   LELF   =      F    write electronic localiz. function (ELF)
   LORBIT =      0    0 simple, 1 ext, 2 COOP (PROOUT)


 Dipole corrections
   LMONO  =      F    monopole corrections only (constant potential shift)
   LDIPOL =      F    correct potential (dipole corrections)
   IDIPOL =      0    1-x, 2-y, 3-z, 4-all directions 
   EPSILON=  1.0000000 bulk dielectric constant

 Exchange correlation treatment:
   GGA     =    --    GGA type
   LEXCH   =     8    internal setting for exchange type
   VOSKOWN=      0    Vosko Wilk Nusair interpolation
   LHFCALC =     F    Hartree Fock is set to
   LHFONE  =     F    Hartree Fock one center treatment
   AEXX    =    0.0000 exact exchange contribution

 Linear response parameters
   LEPSILON=     F    determine dielectric tensor
   LRPA    =     F    only Hartree local field effects (RPA)
   LNABLA  =     F    use nabla operator in PAW spheres
   LVEL    =     F    velocity operator in full k-point grid
   LINTERFAST=   F  fast interpolation
   KINTER  =     0    interpolate to denser k-point grid
   CSHIFT  =0.1000    complex shift for real part using Kramers Kronig
   OMEGAMAX=  -1.0    maximum frequency
   DEG_THRESHOLD= 0.2000000E-02 threshold for treating states as degnerate
   RTIME   =    0.100 relaxation time in fs

 Orbital magnetization related:
   ORBITALMAG=     F  switch on orbital magnetization
   LCHIMAG   =     F  perturbation theory with respect to B field
   DQ        =  0.001000  dq finite difference perturbation B field



--------------------------------------------------------------------------------------------------------


 finite differences with symmetry
 charge density and potential will be updated during run
 spin polarized calculation
 Variant of blocked Davidson
 Davidson routine will perform the subspace rotation
 perform sub-space diagonalisation
    after iterative eigenvector-optimisation
 modified Broyden-mixing scheme, WC =      100.0
 initial mixing is a Kerker type mixing with AMIX =  0.4000 and BMIX =      1.0000
 Hartree-type preconditioning will be used
 using additional bands          134
 real space projection scheme for non local part
 use partial core corrections
 calculate Harris-corrections to forces 
   (improved forces if not selfconsistent)
 use gradient corrections 
 use of overlap-Matrix (Vanderbilt PP)
 Methfessel and Paxton  Order N= 1 SIGMA  =   0.20


--------------------------------------------------------------------------------------------------------


  energy-cutoff  :      367.94
  volume of cell :      870.61
      direct lattice vectors                 reciprocal lattice vectors
     0.000000000  7.578750000  7.578750000    -0.065973940  0.065973940  0.065973940
     7.578750000  0.000000000  7.578750000     0.065973940 -0.065973940  0.065973940
     7.578750000  7.578750000  0.000000000     0.065973940  0.065973940 -0.065973940

  length of vectors
    10.717971036 10.717971036 10.717971036     0.114270217  0.114270217  0.114270217


 
 k-points in units of 2pi/SCALE and weight: Zr 15x15x15                             
   0.00000000  0.00000000  0.00000000       0.037
  -0.02199131  0.02199131  0.02199131       0.296
   0.00000000  0.00000000  0.04398263       0.222
   0.04398263 -0.04398263  0.00000000       0.444
 
 k-points in reciprocal lattice and weights: Zr 15x15x15                             
   0.00000000  0.00000000  0.00000000       0.037
   0.33333333  0.00000000  0.00000000       0.296
   0.33333333  0.33333333  0.00000000       0.222
  -0.33333333  0.33333333  0.00000000       0.444
 
 position of ions in fractional coordinates (direct lattice) 
   0.00000000  0.00000000  0.00000000
   0.00000000  0.00000000  0.25000000
   0.00000000  0.00000000  0.50000000
   0.00000000  0.00000000  0.75000000
   0.00000000  0.25000000  0.00000000
   0.00000000  0.25000000  0.25000000
   0.00000000  0.25000000  0.50000000
   0.00000000  0.25000000  0.75000000
   0.00000000  0.50000000  0.00000000
   0.00000000  0.50000000  0.25000000
   0.00000000  0.50000000  0.50000000
   0.00000000  0.50000000  0.75000000
   0.00000000  0.75000000  0.00000000
   0.00000000  0.75000000  0.25000000
   0.00000000  0.75000000  0.50000000
   0.00000000  0.75000000  0.75000000
   0.25000000  0.00000000  0.00000000
   0.25000000  0.00000000  0.25000000
   0.25000000  0.00000000  0.50000000
   0.25000000  0.00000000  0.75000000
   0.25000000  0.25000000  0.00000000
   0.25000000  0.25000000  0.25000000
   0.25000000  0.25000000  0.50000000
   0.25000000  0.25000000  0.75000000
   0.25000000  0.50000000  0.00000000
   0.25000000  0.50000000  0.25000000
   0.25000000  0.50000000  0.50000000
   0.25000000  0.50000000  0.75000000
   0.25000000  0.75000000  0.00000000
   0.25000000  0.75000000  0.25000000
   0.25000000  0.75000000  0.50000000
   0.25000000  0.75000000  0.75000000
   0.50000000  0.00000000  0.00000000
   0.50000000  0.00000000  0.25000000
   0.50000000  0.00000000  0.50000000
   0.50000000  0.00000000  0.75000000
   0.50000000  0.25000000  0.00000000
   0.50000000  0.25000000  0.25000000
   0.50000000  0.25000000  0.50000000
   0.50000000  0.25000000  0.75000000
   0.50000000  0.50000000  0.00000000
   0.50000000  0.50000000  0.25000000
   0.50000000  0.50000000  0.50000000
   0.50000000  0.50000000  0.75000000
   0.50000000  0.75000000  0.00000000
   0.50000000  0.75000000  0.25000000
   0.50000000  0.75000000  0.50000000
   0.50000000  0.75000000  0.75000000
   0.75000000  0.00000000  0.00000000
   0.75000000  0.00000000  0.25000000
   0.75000000  0.00000000  0.50000000
   0.75000000  0.00000000  0.75000000
   0.75000000  0.25000000  0.00000000
   0.75000000  0.25000000  0.25000000
   0.75000000  0.25000000  0.50000000
   0.75000000  0.25000000  0.75000000
   0.75000000  0.50000000  0.00000000
   0.75000000  0.50000000  0.25000000
   0.75000000  0.50000000  0.50000000
   0.75000000  0.50000000  0.75000000
   0.75000000  0.75000000  0.00000000
   0.75000000  0.75000000  0.25000000
   0.75000000  0.75000000  0.50000000
   0.75000000  0.75000000  0.75000000
 
 position of ions in cartesian coordinates  (Angst):
   0.00000000  0.00000000  0.00000000
   1.89468750  1.89468750  0.00000000
   3.78937500  3.78937500  0.00000000
   5.68406250  5.68406250  0.00000000
   1.89468750  0.00000000  1.89468750
   3.78937500  1.89468750  1.89468750
   5.68406250  3.78937500  1.89468750
   7.57875000  5.68406250  1.89468750
   3.78937500  0.00000000  3.78937500
   5.68406250  1.89468750  3.78937500
   7.57875000  3.78937500  3.78937500
   9.47343750  5.68406250  3.78937500
   5.68406250  0.00000000  5.68406250
   7.57875000  1.89468750  5.68406250
   9.47343750  3.78937500  5.68406250
  11.36812500  5.68406250  5.68406250
   0.00000000  1.89468750  1.89468750
   1.89468750  3.78937500  1.89468750
   3.78937500  5.68406250  1.89468750
   5.68406250  7.57875000  1.89468750
   1.89468750  1.89468750  3.78937500
   3.78937500  3.78937500  3.78937500
   5.68406250  5.68406250  3.78937500
   7.57875000  7.57875000  3.78937500
   3.78937500  1.89468750  5.68406250
   5.68406250  3.78937500  5.68406250
   7.57875000  5.68406250  5.68406250
   9.47343750  7.57875000  5.68406250
   5.68406250  1.89468750  7.57875000
   7.57875000  3.78937500  7.57875000
   9.47343750  5.68406250  7.57875000
  11.36812500  7.57875000  7.57875000
   0.00000000  3.78937500  3.78937500
   1.89468750  5.68406250  3.78937500
   3.78937500  7.57875000  3.78937500
   5.68406250  9.47343750  3.78937500
   1.89468750  3.78937500  5.68406250
   3.78937500  5.68406250  5.68406250
   5.68406250  7.57875000  5.68406250
   7.57875000  9.47343750  5.68406250
   3.78937500  3.78937500  7.57875000
   5.68406250  5.68406250  7.57875000
   7.57875000  7.57875000  7.57875000
   9.47343750  9.47343750  7.57875000
   5.68406250  3.78937500  9.47343750
   7.57875000  5.68406250  9.47343750
   9.47343750  7.57875000  9.47343750
  11.36812500  9.47343750  9.47343750
   0.00000000  5.68406250  5.68406250
   1.89468750  7.57875000  5.68406250
   3.78937500  9.47343750  5.68406250
   5.68406250 11.36812500  5.68406250
   1.89468750  5.68406250  7.57875000
   3.78937500  7.57875000  7.57875000
   5.68406250  9.47343750  7.57875000
   7.57875000 11.36812500  7.57875000
   3.78937500  5.68406250  9.47343750
   5.68406250  7.57875000  9.47343750
   7.57875000  9.47343750  9.47343750
   9.47343750 11.36812500  9.47343750
   5.68406250  5.68406250 11.36812500
   7.57875000  7.57875000 11.36812500
   9.47343750  9.47343750 11.36812500
  11.36812500 11.36812500 11.36812500
 


--------------------------------------------------------------------------------------------------------


 k-point  1 :   0.0000 0.0000 0.0000  plane waves:   13851
 k-point  2 :   0.3333 0.0000 0.0000  plane waves:   13918
 k-point  3 :   0.3333 0.3333 0.0000  plane waves:   13948
 k-point  4 :  -0.3333 0.3333 0.0000  plane waves:   13943

 maximum and minimum number of plane-waves per node :     13948    13851

 maximum number of plane-waves:     13948
 maximum index in each direction: 
   IXMAX=   17   IYMAX=   16   IZMAX=   16
   IXMIN=  -17   IYMIN=  -17   IZMIN=  -16

 NGX is ok and might be reduce to  70
 NGY is ok and might be reduce to  68
 NGZ is ok and might be reduce to  66

 serial   3D FFT for wavefunctions
 parallel 3D FFT for charge:
    minimum data exchange during FFTs selected (reduces bandwidth)


 total amount of memory used by VASP on root node  1656593. kBytes
========================================================================

   base      :      30000. kBytes
   nonlr-proj:      53955. kBytes
   fftplans  :      94700. kBytes
   grid      :     227360. kBytes
   one-center:       1990. kBytes
   wavefun   :    1248588. kBytes
 
     INWAV:  cpu time    0.0000: real time    0.0000
 Broyden mixing: mesh for mixing (old mesh)
   NGX = 33   NGY = 33   NGZ = 33
  (NGX  =140   NGY  =140   NGZ  =140)
  gives a total of  35937 points

 initial charge density was supplied:
 charge density of overlapping atoms calculated
 number of electron    1024.0000000 magnetization      64.0000000
 keeping initial charge density in first step


--------------------------------------------------------------------------------------------------------


 Maximum index for non-local projection operator         4874
 Maximum index for augmentation-charges         8391 (set IRDMAX)


--------------------------------------------------------------------------------------------------------


 First call to EWALD:  gamma=   0.186
 Maximum number of real-space cells 3x 3x 3
 Maximum number of reciprocal cells 3x 3x 3

 FEWALD executed in parallel
    FEWALD:  cpu time    0.0220: real time    0.0220


----------------------------------------- Iteration    1(   1)  ---------------------------------------


    POTLOK:  cpu time    2.9865: real time    2.9843
    SETDIJ:  cpu time    0.3939: real time    0.3938
     EDDAV:  cpu time  559.6349: real time  559.1712
       DOS:  cpu time    0.0130: real time    0.0130
    --------------------------------------------
      LOOP:  cpu time  563.0294: real time  562.5636

 eigenvalue-minimisations  : 12224
 total energy-change (2. order) : 0.1315295E+05  (-0.5664995E+05)
 number of electron    1024.0000000 magnetization      64.0000000
 augmentation part     1024.0000000 magnetization      64.0000000

 Free energy of the ion-electron system (eV)
  ---------------------------------------------------
  alpha Z        PSCENC =      7925.72117195
  Ewald energy   TEWEN  =   -142726.55438443
  -Hartree energ DENC   =    -68446.41765041
  -exchange      EXHF   =         0.00000000
  -V(xc)+E(xc)   XCENC  =      5673.78680672
  PAW double counting   =    172361.15642774  -181272.45834873
  entropy T*S    EENTRO =         0.00415558
  eigenvalues    EBANDS =     -4375.57596612
  atomic energy  EATOM  =    224013.29143063
  Solvation  Ediel_sol  =         0.00000000
  ---------------------------------------------------
  free energy    TOTEN  =     13152.95364294 eV

  energy without entropy =    13152.94948735  energy(sigma->0) =    13152.95225774


--------------------------------------------------------------------------------------------------------




----------------------------------------- Iteration    1(   2)  ---------------------------------------


     EDDAV:  cpu time  490.3115: real time  489.9052
       DOS:  cpu time    0.0140: real time    0.0137
    --------------------------------------------
      LOOP:  cpu time  490.3265: real time  489.9195

 eigenvalue-minimisations  : 10336
 total energy-change (2. order) :-0.1250737E+05  (-0.1214569E+05)
 number of electron    1024.0000000 magnetization      64.0000000
 augmentation part     1024.0000000 magnetization      64.0000000

 Free energy of the ion-electron system (eV)
  ---------------------------------------------------
  alpha Z        PSCENC =      7925.72117195
  Ewald energy   TEWEN  =   -142726.55438443
  -Hartree energ DENC   =    -68446.41765041
  -exchange      EXHF   =         0.00000000
  -V(xc)+E(xc)   XCENC  =      5673.78680672
  PAW double counting   =    172361.15642774  -181272.45834873
  entropy T*S    EENTRO =        -0.00537036
  eigenvalues    EBANDS =    -16882.93446340
  atomic energy  EATOM  =    224013.29143063
  Solvation  Ediel_sol  =         0.00000000
  ---------------------------------------------------
  free energy    TOTEN  =       645.58561973 eV

  energy without entropy =      645.59099008  energy(sigma->0) =      645.58740984


--------------------------------------------------------------------------------------------------------




----------------------------------------- Iteration    1(   3)  ---------------------------------------


     EDDAV:  cpu time  504.5183: real time  504.1006
       DOS:  cpu time    0.0160: real time    0.0155
    --------------------------------------------
      LOOP:  cpu time  504.5353: real time  504.1172

 eigenvalue-minimisations  : 10734
 total energy-change (2. order) :-0.1003249E+04  (-0.8250429E+03)
 number of electron    1024.0000000 magnetization      64.0000000
 augmentation part     1024.0000000 magnetization      64.0000000

 Free energy of the ion-electron system (eV)
  ---------------------------------------------------
  alpha Z        PSCENC =      7925.72117195
  Ewald energy   TEWEN  =   -142726.55438443
  -Hartree energ DENC   =    -68446.41765041
  -exchange      EXHF   =         0.00000000
  -V(xc)+E(xc)   XCENC  =      5673.78680672
  PAW double counting   =    172361.15642774  -181272.45834873
  entropy T*S    EENTRO =         0.12702582
  eigenvalues    EBANDS =    -17886.31633350
  atomic energy  EATOM  =    224013.29143063
  Solvation  Ediel_sol  =         0.00000000
  ---------------------------------------------------
  free energy    TOTEN  =      -357.66385420 eV

  energy without entropy =     -357.79088002  energy(sigma->0) =     -357.70619614


--------------------------------------------------------------------------------------------------------




----------------------------------------- Iteration    1(   4)  ---------------------------------------


     EDDAV:  cpu time  519.3400: real time  518.9095
       DOS:  cpu time    0.0150: real time    0.0155
    --------------------------------------------
      LOOP:  cpu time  519.3550: real time  518.9255

 eigenvalue-minimisations  : 11104
 total energy-change (2. order) :-0.5323130E+02  (-0.5181672E+02)
 number of electron    1024.0000000 magnetization      64.0000000
 augmentation part     1024.0000000 magnetization      64.0000000

 Free energy of the ion-electron system (eV)
  ---------------------------------------------------
  alpha Z        PSCENC =      7925.72117195
  Ewald energy   TEWEN  =   -142726.55438443
  -Hartree energ DENC   =    -68446.41765041
  -exchange      EXHF   =         0.00000000
  -V(xc)+E(xc)   XCENC  =      5673.78680672
  PAW double counting   =    172361.15642774  -181272.45834873
  entropy T*S    EENTRO =         0.14264114
  eigenvalues    EBANDS =    -17939.56324840
  atomic energy  EATOM  =    224013.29143063
  Solvation  Ediel_sol  =         0.00000000
  ---------------------------------------------------
  free energy    TOTEN  =      -410.89515378 eV

  energy without entropy =     -411.03779492  energy(sigma->0) =     -410.94270082


--------------------------------------------------------------------------------------------------------




----------------------------------------- Iteration    1(   5)  ---------------------------------------


     EDDAV:  cpu time  512.8240: real time  512.3990
       DOS:  cpu time    0.0150: real time    0.0154
    CHARGE:  cpu time   27.7228: real time   27.6996
    MIXING:  cpu time    0.0570: real time    0.0559
    --------------------------------------------
      LOOP:  cpu time  540.6198: real time  540.1706

 eigenvalue-minimisations  : 10936
 total energy-change (2. order) :-0.8313569E+00  (-0.8305335E+00)
 number of electron    1023.9995924 magnetization      59.8274132
 augmentation part      572.6514040 magnetization      47.4058369

 Broyden mixing:
  rms(total) = 0.67615E+01    rms(broyden)= 0.67582E+01
  rms(prec ) = 0.90531E+01
  weight for this iteration     100.00

 Free energy of the ion-electron system (eV)
  ---------------------------------------------------
  alpha Z        PSCENC =      7925.72117195
  Ewald energy   TEWEN  =   -142726.55438443
  -Hartree energ DENC   =    -68446.41765041
  -exchange      EXHF   =         0.00000000
  -V(xc)+E(xc)   XCENC  =      5673.78680672
  PAW double counting   =    172361.15642774  -181272.45834873
  entropy T*S    EENTRO =         0.14280877
  eigenvalues    EBANDS =    -17940.39477295
  atomic energy  EATOM  =    224013.29143063
  Solvation  Ediel_sol  =         0.00000000
  ---------------------------------------------------
  free energy    TOTEN  =      -411.72651069 eV

  energy without entropy =     -411.86931947  energy(sigma->0) =     -411.77411362


--------------------------------------------------------------------------------------------------------




----------------------------------------- Iteration    1(   6)  ---------------------------------------


    POTLOK:  cpu time    2.9576: real time    2.9559
    SETDIJ:  cpu time    0.3939: real time    0.3929
     EDDAV:  cpu time  504.1774: real time  503.7600
       DOS:  cpu time    0.0160: real time    0.0158
    CHARGE:  cpu time   25.2622: real time   25.2414
    MIXING:  cpu time    0.0590: real time    0.0587
    --------------------------------------------
      LOOP:  cpu time  532.8660: real time  532.4253

 eigenvalue-minimisations  : 10788
 total energy-change (2. order) : 0.1399486E+02  (-0.7132321E+02)
 number of electron    1023.9995401 magnetization      53.7168101
 augmentation part      638.4669619 magnetization      48.5437438

 Broyden mixing:
  rms(total) = 0.64060E+01    rms(broyden)= 0.64054E+01
  rms(prec ) = 0.80006E+01
  weight for this iteration     100.00

 eigenvalues of (default mixing * dielectric matrix)
  average eigenvalue GAMMA=   0.4878
  0.4878

 Free energy of the ion-electron system (eV)
  ---------------------------------------------------
  alpha Z        PSCENC =      7925.72117195
  Ewald energy   TEWEN  =   -142726.55438443
  -Hartree energ DENC   =    -65008.95324799
  -exchange      EXHF   =         0.00000000
  -V(xc)+E(xc)   XCENC  =      5546.05988805
  PAW double counting   =    166673.68619153  -175246.65853125
  entropy T*S    EENTRO =        -0.55437013
  eigenvalues    EBANDS =    -21573.76979990
  atomic energy  EATOM  =    224013.29143063
  Solvation  Ediel_sol  =         0.00000000
  ---------------------------------------------------
  free energy    TOTEN  =      -397.73165154 eV

  energy without entropy =     -397.17728141  energy(sigma->0) =     -397.54686150


--------------------------------------------------------------------------------------------------------




----------------------------------------- Iteration    1(   7)  ---------------------------------------


    POTLOK:  cpu time    2.9166: real time    2.9148
    SETDIJ:  cpu time    0.3929: real time    0.3926
     EDDAV:  cpu time  502.6926: real time  502.2791
       DOS:  cpu time    0.0160: real time    0.0154
    CHARGE:  cpu time   25.8771: real time   25.8565
    MIXING:  cpu time    0.0610: real time    0.0611
    --------------------------------------------
      LOOP:  cpu time  531.9571: real time  531.5202

 eigenvalue-minimisations  : 10752
 total energy-change (2. order) : 0.4602304E+02  (-0.1702581E+02)
 number of electron    1023.9995651 magnetization      49.5411280
 augmentation part      607.5199689 magnetization      40.4300128

 Broyden mixing:
  rms(total) = 0.58895E+00    rms(broyden)= 0.58784E+00
  rms(prec ) = 0.66634E+00
  weight for this iteration     100.00

 eigenvalues of (default mixing * dielectric matrix)
  average eigenvalue GAMMA=   0.6811
  0.8258  0.5364

 Free energy of the ion-electron system (eV)
  ---------------------------------------------------
  alpha Z        PSCENC =      7925.72117195
  Ewald energy   TEWEN  =   -142726.55438443
  -Hartree energ DENC   =    -66449.34279996
  -exchange      EXHF   =         0.00000000
  -V(xc)+E(xc)   XCENC  =      5599.02334401
  PAW double counting   =    169495.34330015  -178355.92139672
  entropy T*S    EENTRO =        -0.16345115
  eigenvalues    EBANDS =    -19853.10583076
  atomic energy  EATOM  =    224013.29143063
  Solvation  Ediel_sol  =         0.00000000
  ---------------------------------------------------
  free energy    TOTEN  =      -351.70861629 eV

  energy without entropy =     -351.54516513  energy(sigma->0) =     -351.65413257


--------------------------------------------------------------------------------------------------------




----------------------------------------- Iteration    1(   8)  ---------------------------------------


    POTLOK:  cpu time    2.9885: real time    2.9861
    SETDIJ:  cpu time    0.3929: real time    0.3923
     EDDAV:  cpu time  502.7206: real time  502.3034
       DOS:  cpu time    0.0140: real time    0.0143
    CHARGE:  cpu time   26.0650: real time   26.0438
    MIXING:  cpu time    0.0640: real time    0.0636
    --------------------------------------------
      LOOP:  cpu time  532.2461: real time  531.8043

 eigenvalue-minimisations  : 10776
 total energy-change (2. order) :-0.2826150E+00  (-0.1750641E+00)
 number of electron    1023.9995658 magnetization      45.7629871
 augmentation part      606.5333324 magnetization      38.0658957

 Broyden mixing:
  rms(total) = 0.32355E+00    rms(broyden)= 0.32343E+00
  rms(prec ) = 0.41840E+00
  weight for this iteration     100.00

 eigenvalues of (default mixing * dielectric matrix)
  average eigenvalue GAMMA=   1.0823
  0.5406  0.8528  1.8533

 Free energy of the ion-electron system (eV)
  ---------------------------------------------------
  alpha Z        PSCENC =      7925.72117195
  Ewald energy   TEWEN  =   -142726.55438443
  -Hartree energ DENC   =    -66378.24365972
  -exchange      EXHF   =         0.00000000
  -V(xc)+E(xc)   XCENC  =      5597.62853249
  PAW double counting   =    169773.46865472  -178709.97885396
  entropy T*S    EENTRO =        -0.14726460
  eigenvalues    EBANDS =    -19847.17685842
  atomic energy  EATOM  =    224013.29143063
  Solvation  Ediel_sol  =         0.00000000
  ---------------------------------------------------
  free energy    TOTEN  =      -351.99123133 eV

  energy without entropy =     -351.84396673  energy(sigma->0) =     -351.94214313


--------------------------------------------------------------------------------------------------------




----------------------------------------- Iteration    1(   9)  ---------------------------------------


    POTLOK:  cpu time    2.9665: real time    2.9637
    SETDIJ:  cpu time    0.3909: real time    0.3903
     EDDAV:  cpu time  509.3426: real time  508.9207
       DOS:  cpu time    0.0150: real time    0.0154
    CHARGE:  cpu time   26.2780: real time   26.2561
    MIXING:  cpu time    0.0660: real time    0.0667
    --------------------------------------------
      LOOP:  cpu time  539.0601: real time  538.6136

 eigenvalue-minimisations  : 11018
 total energy-change (2. order) : 0.5816347E-01  (-0.3471395E-01)
 number of electron    1023.9995650 magnetization      45.7167261
 augmentation part      607.4416918 magnetization      39.3423613

 Broyden mixing:
  rms(total) = 0.85194E-01    rms(broyden)= 0.85172E-01
  rms(prec ) = 0.88242E-01
  weight for this iteration     100.00

 eigenvalues of (default mixing * dielectric matrix)
  average eigenvalue GAMMA=   1.0904
  2.2838  0.9054  0.5471  0.6253

 Free energy of the ion-electron system (eV)
  ---------------------------------------------------
  alpha Z        PSCENC =      7925.72117195
  Ewald energy   TEWEN  =   -142726.55438443
  -Hartree energ DENC   =    -66222.44785334
  -exchange      EXHF   =         0.00000000
  -V(xc)+E(xc)   XCENC  =      5593.17808521
  PAW double counting   =    169984.80101197  -178990.82578599
  entropy T*S    EENTRO =        -0.14801579
  eigenvalues    EBANDS =    -19928.94872807
  atomic energy  EATOM  =    224013.29143063
  Solvation  Ediel_sol  =         0.00000000
  ---------------------------------------------------
  free energy    TOTEN  =      -351.93306786 eV

  energy without entropy =     -351.78505206  energy(sigma->0) =     -351.88372926


--------------------------------------------------------------------------------------------------------




----------------------------------------- Iteration    1(  10)  ---------------------------------------


    POTLOK:  cpu time    2.9775: real time    2.9754
    SETDIJ:  cpu time    0.3939: real time    0.3924
     EDDAV:  cpu time  523.4904: real time  523.0575
       DOS:  cpu time    0.0150: real time    0.0153
    CHARGE:  cpu time   26.1550: real time   26.1330
    MIXING:  cpu time    0.0690: real time    0.0694
    --------------------------------------------
      LOOP:  cpu time  553.1029: real time  552.6437

 eigenvalue-minimisations  : 11274
 total energy-change (2. order) :-0.5393560E-02  (-0.1527204E-02)
 number of electron    1023.9995651 magnetization      46.0611552
 augmentation part      607.4146638 magnetization      39.6637964

 Broyden mixing:
  rms(total) = 0.33431E-01    rms(broyden)= 0.33408E-01
  rms(prec ) = 0.36726E-01
  weight for this iteration     100.00

 eigenvalues of (default mixing * dielectric matrix)
  average eigenvalue GAMMA=   1.1214
  2.3285  1.0916  1.0196  0.5429  0.6244

 Free energy of the ion-electron system (eV)
  ---------------------------------------------------
  alpha Z        PSCENC =      7925.72117195
  Ewald energy   TEWEN  =   -142726.55438443
  -Hartree energ DENC   =    -66214.88418922
  -exchange      EXHF   =         0.00000000
  -V(xc)+E(xc)   XCENC  =      5593.03714345
  PAW double counting   =    170050.86948012  -179063.10927578
  entropy T*S    EENTRO =        -0.14674867
  eigenvalues    EBANDS =    -19930.16308948
  atomic energy  EATOM  =    224013.29143063
  Solvation  Ediel_sol  =         0.00000000
  ---------------------------------------------------
  free energy    TOTEN  =      -351.93846142 eV

  energy without entropy =     -351.79171275  energy(sigma->0) =     -351.88954520


--------------------------------------------------------------------------------------------------------




----------------------------------------- Iteration    1(  11)  ---------------------------------------


    POTLOK:  cpu time    2.9895: real time    2.9865
    SETDIJ:  cpu time    0.3929: real time    0.3927
     EDDAV:  cpu time  510.3824: real time  509.9618
       DOS:  cpu time    0.0150: real time    0.0157
    CHARGE:  cpu time   26.9729: real time   26.9494
    MIXING:  cpu time    0.0720: real time    0.0726
    --------------------------------------------
      LOOP:  cpu time  540.8258: real time  540.3793

 eigenvalue-minimisations  : 10854
 total energy-change (2. order) :-0.2857573E-02  (-0.7045526E-03)
 number of electron    1023.9995652 magnetization      46.1779966
 augmentation part      607.2764989 magnetization      39.6445239

 Broyden mixing:
  rms(total) = 0.12371E-01    rms(broyden)= 0.12339E-01
  rms(prec ) = 0.14990E-01
  weight for this iteration     100.00

 eigenvalues of (default mixing * dielectric matrix)
  average eigenvalue GAMMA=   1.1967
  2.4353  1.8659  0.9597  0.5411  0.7428  0.6357

 Free energy of the ion-electron system (eV)
  ---------------------------------------------------
  alpha Z        PSCENC =      7925.72117195
  Ewald energy   TEWEN  =   -142726.55438443
  -Hartree energ DENC   =    -66221.17025973
  -exchange      EXHF   =         0.00000000
  -V(xc)+E(xc)   XCENC  =      5593.25836285
  PAW double counting   =    170128.11065687  -179141.06973253
  entropy T*S    EENTRO =        -0.14608639
  eigenvalues    EBANDS =    -19923.38247820
  atomic energy  EATOM  =    224013.29143063
  Solvation  Ediel_sol  =         0.00000000
  ---------------------------------------------------
  free energy    TOTEN  =      -351.94131899 eV

  energy without entropy =     -351.79523260  energy(sigma->0) =     -351.89262353


--------------------------------------------------------------------------------------------------------




----------------------------------------- Iteration    1(  12)  ---------------------------------------


    POTLOK:  cpu time    2.9855: real time    2.9837
    SETDIJ:  cpu time    0.3929: real time    0.3925
     EDDAV:  cpu time  521.7807: real time  521.3496
       DOS:  cpu time    0.0150: real time    0.0154
    CHARGE:  cpu time   26.9569: real time   26.9338
    MIXING:  cpu time    0.0760: real time    0.0761
    --------------------------------------------
      LOOP:  cpu time  552.2081: real time  551.7518

 eigenvalue-minimisations  : 11150
 total energy-change (2. order) :-0.1774840E-03  (-0.7049504E-04)
 number of electron    1023.9995652 magnetization      46.1787474
 augmentation part      607.3190742 magnetization      39.6035595

 Broyden mixing:
  rms(total) = 0.24888E-02    rms(broyden)= 0.24823E-02
  rms(prec ) = 0.28428E-02
  weight for this iteration     100.00

 eigenvalues of (default mixing * dielectric matrix)
  average eigenvalue GAMMA=   1.1923
  2.4860  1.9982  0.5418  0.9931  0.9159  0.6270  0.7844

 Free energy of the ion-electron system (eV)
  ---------------------------------------------------
  alpha Z        PSCENC =      7925.72117195
  Ewald energy   TEWEN  =   -142726.55438443
  -Hartree energ DENC   =    -66219.19105074
  -exchange      EXHF   =         0.00000000
  -V(xc)+E(xc)   XCENC  =      5593.17823071
  PAW double counting   =    170155.33303368  -179167.78326510
  entropy T*S    EENTRO =        -0.14730481
  eigenvalues    EBANDS =    -19925.78935836
  atomic energy  EATOM  =    224013.29143063
  Solvation  Ediel_sol  =         0.00000000
  ---------------------------------------------------
  free energy    TOTEN  =      -351.94149648 eV

  energy without entropy =     -351.79419166  energy(sigma->0) =     -351.89239487


--------------------------------------------------------------------------------------------------------




----------------------------------------- Iteration    1(  13)  ---------------------------------------


    POTLOK:  cpu time    2.9915: real time    2.9889
    SETDIJ:  cpu time    0.3919: real time    0.3925
     EDDAV:  cpu time  525.3241: real time  524.8895
       DOS:  cpu time    0.0150: real time    0.0154
    CHARGE:  cpu time   26.7879: real time   26.7655
    MIXING:  cpu time    0.0790: real time    0.0795
    --------------------------------------------
      LOOP:  cpu time  555.5905: real time  555.1321

 eigenvalue-minimisations  : 11260
 total energy-change (2. order) : 0.1222207E-04  (-0.6644262E-05)
 number of electron    1023.9995652 magnetization      46.1736195
 augmentation part      607.3360790 magnetization      39.5993760

 Broyden mixing:
  rms(total) = 0.16279E-02    rms(broyden)= 0.16271E-02
  rms(prec ) = 0.20894E-02
  weight for this iteration     100.00

 eigenvalues of (default mixing * dielectric matrix)
  average eigenvalue GAMMA=   1.2070
  2.4688  2.0037  1.5063  0.9842  0.5420  0.6238  0.7634  0.7634

 Free energy of the ion-electron system (eV)
  ---------------------------------------------------
  alpha Z        PSCENC =      7925.72117195
  Ewald energy   TEWEN  =   -142726.55438443
  -Hartree energ DENC   =    -66218.77870436
  -exchange      EXHF   =         0.00000000
  -V(xc)+E(xc)   XCENC  =      5593.16289364
  PAW double counting   =    170159.94315458  -179171.91502047
  entropy T*S    EENTRO =        -0.14750147
  eigenvalues    EBANDS =    -19926.66452432
  atomic energy  EATOM  =    224013.29143063
  Solvation  Ediel_sol  =         0.00000000
  ---------------------------------------------------
  free energy    TOTEN  =      -351.94148425 eV

  energy without entropy =     -351.79398278  energy(sigma->0) =     -351.89231710


--------------------------------------------------------------------------------------------------------




----------------------------------------- Iteration    1(  14)  ---------------------------------------


    POTLOK:  cpu time    2.9895: real time    2.9871
    SETDIJ:  cpu time    0.3929: real time    0.3924
     EDDAV:  cpu time  398.0975: real time  397.7683
       DOS:  cpu time    0.0150: real time    0.0157
    CHARGE:  cpu time   27.9408: real time   27.9174
    MIXING:  cpu time    0.0840: real time    0.0842
    --------------------------------------------
      LOOP:  cpu time  429.5207: real time  429.1658

 eigenvalue-minimisations  :  7580
 total energy-change (2. order) : 0.1448294E-04  (-0.3357981E-06)
 number of electron    1023.9995652 magnetization      46.1721784
 augmentation part      607.3342460 magnetization      39.5998669

 Broyden mixing:
  rms(total) = 0.10153E-02    rms(broyden)= 0.10152E-02
  rms(prec ) = 0.12831E-02
  weight for this iteration     100.00

 eigenvalues of (default mixing * dielectric matrix)
  average eigenvalue GAMMA=   1.2596
  2.4620  2.4620  1.8988  1.0094  0.5418  0.8863  0.8165  0.6288  0.6305

 Free energy of the ion-electron system (eV)
  ---------------------------------------------------
  alpha Z        PSCENC =      7925.72117195
  Ewald energy   TEWEN  =   -142726.55438443
  -Hartree energ DENC   =    -66219.16733004
  -exchange      EXHF   =         0.00000000
  -V(xc)+E(xc)   XCENC  =      5593.17768671
  PAW double counting   =    170163.90410823  -179175.62816899
  entropy T*S    EENTRO =        -0.14746114
  eigenvalues    EBANDS =    -19926.53852269
  atomic energy  EATOM  =    224013.29143063
  Solvation  Ediel_sol  =         0.00000000
  ---------------------------------------------------
  free energy    TOTEN  =      -351.94146977 eV

  energy without entropy =     -351.79400863  energy(sigma->0) =     -351.89231606


--------------------------------------------------------------------------------------------------------




----------------------------------------- Iteration    1(  15)  ---------------------------------------


    POTLOK:  cpu time    3.0715: real time    3.0695
    SETDIJ:  cpu time    0.3989: real time    0.3981
     EDDAV:  cpu time  396.8387: real time  396.5108
       DOS:  cpu time    0.0160: real time    0.0157
    CHARGE:  cpu time   27.9907: real time   27.9680
    MIXING:  cpu time    0.0880: real time    0.0883
    --------------------------------------------
      LOOP:  cpu time  428.4049: real time  428.0512

 eigenvalue-minimisations  :  7370
 total energy-change (2. order) : 0.9737036E-05  (-0.3176953E-06)
 number of electron    1023.9995652 magnetization      46.1716765
 augmentation part      607.3298172 magnetization      39.5993492

 Broyden mixing:
  rms(total) = 0.75469E-04    rms(broyden)= 0.74908E-04
  rms(prec ) = 0.93214E-04
  weight for this iteration     100.00

 eigenvalues of (default mixing * dielectric matrix)
  average eigenvalue GAMMA=   1.2434
  2.6383  2.4212  1.9216  1.0354  1.0141  0.5418  0.7962  0.7962  0.6282  0.6415

 Free energy of the ion-electron system (eV)
  ---------------------------------------------------
  alpha Z        PSCENC =      7925.72117195
  Ewald energy   TEWEN  =   -142726.55438443
  -Hartree energ DENC   =    -66219.53531779
  -exchange      EXHF   =         0.00000000
  -V(xc)+E(xc)   XCENC  =      5593.19152895
  PAW double counting   =    170166.69829248  -179178.30826518
  entropy T*S    EENTRO =        -0.14740379
  eigenvalues    EBANDS =    -19926.29851286
  atomic energy  EATOM  =    224013.29143063
  Solvation  Ediel_sol  =         0.00000000
  ---------------------------------------------------
  free energy    TOTEN  =      -351.94146003 eV

  energy without entropy =     -351.79405625  energy(sigma->0) =     -351.89232544


--------------------------------------------------------------------------------------------------------




----------------------------------------- Iteration    1(  16)  ---------------------------------------


    POTLOK:  cpu time    3.0675: real time    3.0654
    SETDIJ:  cpu time    0.3989: real time    0.3979
     EDDAV:  cpu time  323.9368: real time  323.6693
       DOS:  cpu time    0.0160: real time    0.0157
    --------------------------------------------
      LOOP:  cpu time  327.4202: real time  327.1490

 eigenvalue-minimisations  :  5436
 total energy-change (2. order) :-0.1480803E-06  (-0.1304932E-07)
 number of electron    1023.9995652 magnetization      46.1716765
 augmentation part      607.3298172 magnetization      39.5993492

 Free energy of the ion-electron system (eV)
  ---------------------------------------------------
  alpha Z        PSCENC =      7925.72117195
  Ewald energy   TEWEN  =   -142726.55438443
  -Hartree energ DENC   =    -66219.52492333
  -exchange      EXHF   =         0.00000000
  -V(xc)+E(xc)   XCENC  =      5593.19134309
  PAW double counting   =    170166.69975844  -179178.31427363
  entropy T*S    EENTRO =        -0.14739888
  eigenvalues    EBANDS =    -19926.30418403
  atomic energy  EATOM  =    224013.29143063
  Solvation  Ediel_sol  =         0.00000000
  ---------------------------------------------------
  free energy    TOTEN  =      -351.94146018 eV

  energy without entropy =     -351.79406130  energy(sigma->0) =     -351.89232722


--------------------------------------------------------------------------------------------------------




 average (electrostatic) potential at core
  the test charge radii are     0.8614
  (the norm of the test charge is              1.0000)
       1 -81.5729       2 -81.5729       3 -81.5729       4 -81.5729       5 -81.5729
       6 -81.5729       7 -81.5729       8 -81.5729       9 -81.5729      10 -81.5729
      11 -81.5729      12 -81.5729      13 -81.5729      14 -81.5729      15 -81.5729
      16 -81.5729      17 -81.5729      18 -81.5729      19 -81.5729      20 -81.5729
      21 -81.5729      22 -81.5729      23 -81.5729      24 -81.5729      25 -81.5729
      26 -81.5729      27 -81.5729      28 -81.5729      29 -81.5729      30 -81.5729
      31 -81.5729      32 -81.5729      33 -81.5729      34 -81.5729      35 -81.5729
      36 -81.5729      37 -81.5729      38 -81.5729      39 -81.5729      40 -81.5729
      41 -81.5729      42 -81.5729      43 -81.5729      44 -81.5729      45 -81.5729
      46 -81.5729      47 -81.5729      48 -81.5729      49 -81.5729      50 -81.5729
      51 -81.5729      52 -81.5729      53 -81.5729      54 -81.5729      55 -81.5729
      56 -81.5729      57 -81.5729      58 -81.5729      59 -81.5729      60 -81.5729
      61 -81.5729      62 -81.5729      63 -81.5729      64 -81.5729
 
 
 
 E-fermi :   5.3953     XC(G=0): -12.4135     alpha+bet :-11.9025


 spin component 1

 k-point     1 :       0.0000    0.0000    0.0000
  band No.  band energies     occupation 
      1     -58.3455      1.00000
      2     -58.3455      1.00000
      3     -58.3455      1.00000
      4     -58.3455      1.00000
      5     -58.3401      1.00000
      6     -58.3401      1.00000
      7     -58.3401      1.00000
      8     -58.3205      1.00000
      9     -58.3205      1.00000
     10     -58.3205      1.00000
     11     -58.3205      1.00000
     12     -58.3205      1.00000
     13     -58.3205      1.00000
     14     -58.3204      1.00000
     15     -58.3204      1.00000
     16     -58.3204      1.00000
     17     -58.3204      1.00000
     18     -58.3204      1.00000
     19     -58.3204      1.00000
     20     -58.3204      1.00000
     21     -58.3204      1.00000
     22     -58.3204      1.00000
     23     -58.3204      1.00000
     24     -58.3204      1.00000
     25     -58.3204      1.00000
     26     -58.3204      1.00000
     27     -58.3204      1.00000
     28     -58.3204      1.00000
     29     -58.3204      1.00000
     30     -58.3204      1.00000
     31     -58.3204      1.00000
     32     -58.3119      1.00000
     33     -58.3119      1.00000
     34     -58.3119      1.00000
     35     -58.3119      1.00000
     36     -58.3119      1.00000
     37     -58.3119      1.00000
     38     -58.3119      1.00000
     39     -58.3119      1.00000
     40     -58.3119      1.00000
     41     -58.3119      1.00000
     42     -58.3119      1.00000
     43     -58.3119      1.00000
     44     -58.3034      1.00000
     45     -58.3034      1.00000
     46     -58.3034      1.00000
     47     -58.3034      1.00000
     48     -58.3034      1.00000
     49     -58.3034      1.00000
     50     -58.3034      1.00000
     51     -58.3034      1.00000
     52     -58.3034      1.00000
     53     -58.3034      1.00000
     54     -58.3034      1.00000
     55     -58.3034      1.00000
     56     -58.2935      1.00000
     57     -58.2935      1.00000
     58     -58.2935      1.00000
     59     -58.2935      1.00000
     60     -58.2935      1.00000
     61     -58.2935      1.00000
     62     -58.2910      1.00000
     63     -58.2910      1.00000
     64     -58.2909      1.00000
     65     -58.2909      1.00000
     66     -58.2909      1.00000
     67     -58.2909      1.00000
     68     -58.2909      1.00000
     69     -58.2909      1.00000
     70     -58.2850      1.00000
     71     -58.2850      1.00000
     72     -58.2850      1.00000
     73     -58.2850      1.00000
     74     -58.2850      1.00000
     75     -58.2850      1.00000
     76     -58.2848      1.00000
     77     -58.2848      1.00000
     78     -58.2848      1.00000
     79     -58.2848      1.00000
     80     -58.2848      1.00000
     81     -58.2848      1.00000
     82     -58.2848      1.00000
     83     -58.2848      1.00000
     84     -58.2848      1.00000
     85     -58.2848      1.00000
     86     -58.2848      1.00000
     87     -58.2848      1.00000
     88     -58.2816      1.00000
     89     -58.2816      1.00000
     90     -58.2816      1.00000
     91     -58.2816      1.00000
     92     -58.2816      1.00000
     93     -58.2816      1.00000
     94     -58.2816      1.00000
     95     -58.2816      1.00000
     96     -58.2816      1.00000
     97     -58.2816      1.00000
     98     -58.2816      1.00000
     99     -58.2816      1.00000
    100     -58.2816      1.00000
    101     -58.2816      1.00000
    102     -58.2816      1.00000
    103     -58.2816      1.00000
    104     -58.2816      1.00000
    105     -58.2816      1.00000
    106     -58.2816      1.00000
    107     -58.2816      1.00000
    108     -58.2816      1.00000
    109     -58.2816      1.00000
    110     -58.2816      1.00000
    111     -58.2816      1.00000
    112     -58.2705      1.00000
    113     -58.2705      1.00000
    114     -58.2705      1.00000
    115     -58.2705      1.00000
    116     -58.2705      1.00000
    117     -58.2705      1.00000
    118     -58.2688      1.00000
    119     -58.2688      1.00000
    120     -58.2688      1.00000
    121     -58.2688      1.00000
    122     -58.2688      1.00000
    123     -58.2688      1.00000
    124     -58.2688      1.00000
    125     -58.2688      1.00000
    126     -58.2688      1.00000
    127     -58.2688      1.00000
    128     -58.2688      1.00000
    129     -58.2688      1.00000
    130     -58.2687      1.00000
    131     -58.2687      1.00000
    132     -58.2687      1.00000
    133     -58.2687      1.00000
    134     -58.2687      1.00000
    135     -58.2687      1.00000
    136     -58.2687      1.00000
    137     -58.2687      1.00000
    138     -58.2687      1.00000
    139     -58.2687      1.00000
    140     -58.2687      1.00000
    141     -58.2687      1.00000
    142     -58.2623      1.00000
    143     -58.2623      1.00000
    144     -58.2623      1.00000
    145     -58.2623      1.00000
    146     -58.2623      1.00000
    147     -58.2623      1.00000
    148     -58.2623      1.00000
    149     -58.2623      1.00000
    150     -58.2623      1.00000
    151     -58.2623      1.00000
    152     -58.2623      1.00000
    153     -58.2623      1.00000
    154     -58.2622      1.00000
    155     -58.2622      1.00000
    156     -58.2622      1.00000
    157     -58.2622      1.00000
    158     -58.2622      1.00000
    159     -58.2622      1.00000
    160     -58.2622      1.00000
    161     -58.2622      1.00000
    162     -58.2589      1.00000
    163     -58.2589      1.00000
    164     -58.2589      1.00000
    165     -58.2589      1.00000
    166     -58.2589      1.00000
    167     -58.2589      1.00000
    168     -58.2589      1.00000
    169     -58.2589      1.00000
    170     -58.2589      1.00000
    171     -58.2589      1.00000
    172     -58.2589      1.00000
    173     -58.2589      1.00000
    174     -58.2440      1.00000
    175     -58.2440      1.00000
    176     -58.2440      1.00000
    177     -58.2440      1.00000
    178     -58.2440      1.00000
    179     -58.2440      1.00000
    180     -58.2439      1.00000
    181     -58.2439      1.00000
    182     -58.2439      1.00000
    183     -58.2439      1.00000
    184     -58.2439      1.00000
    185     -58.2439      1.00000
    186     -58.2439      1.00000
    187     -58.2439      1.00000
    188     -58.2439      1.00000
    189     -58.2439      1.00000
    190     -58.2420      1.00000
    191     -58.2420      1.00000
    192     -58.2420      1.00000
    193      -2.2250      1.00000
    194      -0.2959      1.00000
    195      -0.2959      1.00000
    196      -0.2958      1.00000
    197      -0.2958      1.00000
    198      -0.2958      1.00000
    199      -0.2958      1.00000
    200      -0.2958      1.00000
    201      -0.2958      1.00000
    202       0.2947      1.00000
    203       0.2947      1.00000
    204       0.2947      1.00000
    205       0.2947      1.00000
    206       0.2947      1.00000
    207       0.2947      1.00000
    208       1.5523      1.00000
    209       1.5523      1.00000
    210       1.5523      1.00000
    211       1.5523      1.00000
    212       1.8126      1.00000
    213       1.8126      1.00000
    214       1.8126      1.00000
    215       1.9664      1.00000
    216       1.9664      1.00000
    217       1.9664      1.00000
    218       1.9664      1.00000
    219       1.9664      1.00000
    220       1.9664      1.00000
    221       1.9664      1.00000
    222       1.9664      1.00000
    223       1.9664      1.00000
    224       1.9664      1.00000
    225       1.9664      1.00000
    226       1.9664      1.00000
    227       2.1187      1.00000
    228       2.1187      1.00000
    229       2.1187      1.00000
    230       2.1692      1.00000
    231       2.1692      1.00000
    232       2.1692      1.00000
    233       2.1692      1.00000
    234       2.1692      1.00000
    235       2.1692      1.00000
    236       2.1693      1.00000
    237       2.1693      1.00000
    238       2.1693      1.00000
    239       2.1693      1.00000
    240       2.1693      1.00000
    241       2.1693      1.00000
    242       2.1693      1.00000
    243       2.1693      1.00000
    244       2.1693      1.00000
    245       2.1693      1.00000
    246       2.1693      1.00000
    247       2.1693      1.00000
    248       2.1693      1.00000
    249       2.1693      1.00000
    250       2.1693      1.00000
    251       2.1693      1.00000
    252       2.1693      1.00000
    253       2.1693      1.00000
    254       2.4865      1.00000
    255       2.4865      1.00000
    256       2.4865      1.00000
    257       2.4865      1.00000
    258       2.4865      1.00000
    259       2.4865      1.00000
    260       2.6939      1.00000
    261       2.6939      1.00000
    262       2.6939      1.00000
    263       2.6939      1.00000
    264       2.6939      1.00000
    265       2.6939      1.00000
    266       2.6939      1.00000
    267       2.6939      1.00000
    268       2.6939      1.00000
    269       2.6939      1.00000
    270       2.6939      1.00000
    271       2.6939      1.00000
    272       2.6939      1.00000
    273       2.6939      1.00000
    274       2.6939      1.00000
    275       2.6939      1.00000
    276       2.6939      1.00000
    277       2.6939      1.00000
    278       2.6939      1.00000
    279       2.6939      1.00000
    280       2.6939      1.00000
    281       2.6939      1.00000
    282       2.6939      1.00000
    283       2.6939      1.00000
    284       2.7250      1.00000
    285       2.7250      1.00000
    286       2.7250      1.00000
    287       2.7251      1.00000
    288       2.7251      1.00000
    289       2.7251      1.00000
    290       2.9321      1.00000
    291       2.9321      1.00000
    292       2.9321      1.00000
    293       2.9321      1.00000
    294       2.9321      1.00000
    295       2.9321      1.00000
    296       2.9321      1.00000
    297       2.9321      1.00000
    298       2.9321      1.00000
    299       2.9321      1.00000
    300       2.9321      1.00000
    301       2.9321      1.00000
    302       2.9346      1.00000
    303       2.9346      1.00000
    304       2.9346      1.00000
    305       2.9346      1.00000
    306       2.9346      1.00000
    307       2.9346      1.00000
    308       2.9346      1.00000
    309       2.9346      1.00000
    310       2.9346      1.00000
    311       2.9346      1.00000
    312       2.9346      1.00000
    313       2.9346      1.00000
    314       3.1596      1.00000
    315       3.1596      1.00000
    316       3.1596      1.00000
    317       3.1596      1.00000
    318       3.1596      1.00000
    319       3.1596      1.00000
    320       3.1596      1.00000
    321       3.1596      1.00000
    322       3.1912      1.00000
    323       3.1912      1.00000
    324       3.1912      1.00000
    325       3.1912      1.00000
    326       3.1912      1.00000
    327       3.1912      1.00000
    328       3.1912      1.00000
    329       3.1912      1.00000
    330       3.1912      1.00000
    331       3.1912      1.00000
    332       3.1912      1.00000
    333       3.1912      1.00000
    334       3.3669      1.00000
    335       3.3669      1.00000
    336       3.3669      1.00000
    337       3.3984      1.00000
    338       3.3984      1.00000
    339       3.3984      1.00000
    340       3.3984      1.00000
    341       3.3984      1.00000
    342       3.3984      1.00000
    343       3.3984      1.00000
    344       3.3984      1.00000
    345       3.4244      1.00000
    346       3.4244      1.00000
    347       3.4244      1.00000
    348       3.4244      1.00000
    349       3.4244      1.00000
    350       3.4244      1.00000
    351       3.4244      1.00000
    352       3.4244      1.00000
    353       3.4244      1.00000
    354       3.4244      1.00000
    355       3.4244      1.00000
    356       3.4244      1.00000
    357       3.4244      1.00000
    358       3.4244      1.00000
    359       3.4244      1.00000
    360       3.4244      1.00000
    361       3.4244      1.00000
    362       3.4244      1.00000
    363       3.4244      1.00000
    364       3.4244      1.00000
    365       3.4244      1.00000
    366       3.4244      1.00000
    367       3.4244      1.00000
    368       3.4244      1.00000
    369       3.5386      1.00000
    370       3.5386      1.00000
    371       3.5386      1.00000
    372       3.5386      1.00000
    373       3.5386      1.00000
    374       3.5386      1.00000
    375       3.5386      1.00000
    376       3.5386      1.00000
    377       3.5386      1.00000
    378       3.5386      1.00000
    379       3.5386      1.00000
    380       3.5386      1.00000
    381       3.5386      1.00000
    382       3.5386      1.00000
    383       3.5386      1.00000
    384       3.5386      1.00000
    385       3.8123      1.00000
    386       3.8123      1.00000
    387       3.8123      1.00000
    388       3.8123      1.00000
    389       3.8123      1.00000
    390       3.8123      1.00000
    391       3.9289      1.00000
    392       3.9289      1.00000
    393       3.9289      1.00000
    394       3.9290      1.00000
    395       3.9290      1.00000
    396       3.9290      1.00000
    397       3.9290      1.00000
    398       3.9290      1.00000
    399       3.9290      1.00000
    400       3.9290      1.00000
    401       3.9290      1.00000
    402       3.9290      1.00000
    403       3.9656      1.00000
    404       3.9656      1.00000
    405       3.9656      1.00000
    406       3.9656      1.00000
    407       3.9656      1.00000
    408       3.9656      1.00000
    409       3.9656      1.00000
    410       3.9656      1.00000
    411       3.9656      1.00000
    412       3.9657      1.00000
    413       3.9657      1.00000
    414       3.9657      1.00000
    415       4.0129      1.00000
    416       4.0129      1.00000
    417       4.0129      1.00000
    418       4.0129      1.00000
    419       4.0129      1.00000
    420       4.0129      1.00000
    421       4.0129      1.00000
    422       4.0129      1.00000
    423       4.0129      1.00000
    424       4.0130      1.00000
    425       4.0130      1.00000
    426       4.0130      1.00000
    427       4.0130      1.00000
    428       4.0130      1.00000
    429       4.0130      1.00000
    430       4.0130      1.00000
    431       4.0130      1.00000
    432       4.0130      1.00000
    433       4.0130      1.00000
    434       4.0130      1.00000
    435       4.0130      1.00000
    436       4.0130      1.00000
    437       4.0130      1.00000
    438       4.0130      1.00000
    439       4.1094      1.00000
    440       4.1094      1.00000
    441       4.1094      1.00000
    442       4.1094      1.00000
    443       4.1094      1.00000
    444       4.1094      1.00000
    445       4.1094      1.00000
    446       4.1094      1.00000
    447       4.1094      1.00000
    448       4.1094      1.00000
    449       4.1094      1.00000
    450       4.1094      1.00000
    451       4.1897      1.00000
    452       4.1897      1.00000
    453       4.1897      1.00000
    454       4.1897      1.00000
    455       4.1897      1.00000
    456       4.1897      1.00000
    457       4.2220      1.00000
    458       4.2220      1.00000
    459       4.2685      1.00000
    460       4.2685      1.00000
    461       4.2685      1.00000
    462       4.2685      1.00000
    463       4.2685      1.00000
    464       4.2685      1.00000
    465       4.2685      1.00000
    466       4.2685      1.00000
    467       4.2685      1.00000
    468       4.2685      1.00000
    469       4.2685      1.00000
    470       4.2685      1.00000
    471       4.2685      1.00000
    472       4.2685      1.00000
    473       4.2685      1.00000
    474       4.2685      1.00000
    475       4.4711      1.00000
    476       4.4711      1.00000
    477       4.4711      1.00000
    478       4.4712      1.00000
    479       4.4712      1.00000
    480       4.4712      1.00000
    481       4.6743      1.00000
    482       4.6743      1.00000
    483       4.6743      1.00000
    484       4.6743      1.00000
    485       4.6743      1.00000
    486       4.6743      1.00000
    487       4.6743      1.00000
    488       4.6743      1.00000
    489       4.7084      1.00001
    490       4.7084      1.00001
    491       4.7084      1.00001
    492       4.7084      1.00001
    493       4.7084      1.00001
    494       4.7084      1.00001
    495       4.7084      1.00001
    496       4.7084      1.00001
    497       4.7084      1.00001
    498       4.7084      1.00001
    499       4.7084      1.00001
    500       4.7084      1.00001
    501       4.7084      1.00001
    502       4.7084      1.00001
    503       4.7084      1.00001
    504       4.7084      1.00001
    505       4.7084      1.00001
    506       4.7084      1.00001
    507       4.7084      1.00001
    508       4.7084      1.00001
    509       4.7084      1.00001
    510       4.7084      1.00001
    511       4.7084      1.00001
    512       4.7084      1.00001
    513       4.7255      1.00001
    514       4.7255      1.00001
    515       4.7255      1.00001
    516       4.7545      1.00003
    517       4.7545      1.00003
    518       4.7545      1.00003
    519       4.7545      1.00003
    520       4.7545      1.00003
    521       4.7545      1.00003
    522       4.7570      1.00003
    523       4.7570      1.00003
    524       4.7570      1.00003
    525       4.7570      1.00003
    526       4.7570      1.00003
    527       4.7570      1.00003
    528       5.4473      0.28776
    529       5.4473      0.28776
    530       5.4474      0.28773
    531       5.4474      0.28752
    532       5.9185     -0.00068
    533       5.9185     -0.00068
    534       5.9185     -0.00068
    535       5.9185     -0.00068
    536       5.9185     -0.00068
    537       5.9185     -0.00068
    538       5.9185     -0.00068
    539       5.9185     -0.00068
    540       5.9185     -0.00068
    541       5.9185     -0.00068
    542       5.9185     -0.00068
    543       5.9185     -0.00068
    544       7.1066     -0.00000
    545       7.1066     -0.00000
    546       7.1066     -0.00000
    547       7.1067     -0.00000
    548       7.1067     -0.00000
    549       7.1067     -0.00000
    550       7.1067     -0.00000
    551       7.1067     -0.00000
    552       7.1067     -0.00000
    553       7.1067     -0.00000
    554       7.1067     -0.00000
    555       7.1067     -0.00000
    556       7.1067     -0.00000
    557       7.1067     -0.00000
    558       7.1067     -0.00000
    559       7.1067     -0.00000
    560       7.1067     -0.00000
    561       7.1067     -0.00000
    562       7.1067     -0.00000
    563       7.1067     -0.00000
    564       7.1067     -0.00000
    565       7.1067     -0.00000
    566       7.1067     -0.00000
    567       7.1067     -0.00000
    568       7.6947     -0.00000
    569       7.6947     -0.00000
    570       7.6947     -0.00000
    571       9.5915     -0.00000
    572       9.5915     -0.00000
    573       9.5915     -0.00000
    574       9.5915     -0.00000
    575      11.9558      0.00000
    576      11.9558      0.00000
    577      11.9558      0.00000
    578      11.9558      0.00000
    579      11.9558      0.00000
    580      11.9558      0.00000
    581      11.9559      0.00000
    582      11.9559      0.00000
[...]
      7.578750  3.789375  3.789375     0.001223    0.006224    0.124839  
      9.473438  5.684063  3.789375     0.001223    0.006224    0.124839  
      5.684063  0.000000  5.684063     0.001223    0.006224    0.124839  
      7.578750  1.894688  5.684063     0.001223    0.006224    0.124839  
      9.473438  3.789375  5.684063     0.001223    0.006224    0.124839  
     11.368125  5.684063  5.684063     0.001223    0.006224    0.124839  
      0.000000  1.894688  1.894688     0.001223    0.006224    0.124839  
      1.894688  3.789375  1.894688     0.001223    0.006224    0.124839  
      3.789375  5.684063  1.894688     0.001223    0.006224    0.124839  
      5.684063  7.578750  1.894688     0.001223    0.006224    0.124839  
      1.894688  1.894688  3.789375     0.001223    0.006224    0.124839  
      3.789375  3.789375  3.789375     0.001223    0.006224    0.124839  
      5.684063  5.684063  3.789375     0.001223    0.006224    0.124839  
      7.578750  7.578750  3.789375     0.001223    0.006224    0.124839  
      3.789375  1.894688  5.684063     0.001223    0.006224    0.124839  
      5.684063  3.789375  5.684063     0.001223    0.006224    0.124839  
      7.578750  5.684063  5.684063     0.001223    0.006224    0.124839  
      9.473438  7.578750  5.684063     0.001223    0.006224    0.124839  
      5.684063  1.894688  7.578750     0.001223    0.006224    0.124839  
      7.578750  3.789375  7.578750     0.001223    0.006224    0.124839  
      9.473438  5.684063  7.578750     0.001223    0.006224    0.124839  
     11.368125  7.578750  7.578750     0.001223    0.006224    0.124839  
      0.000000  3.789375  3.789375     0.001223    0.006224    0.124839  
      1.894688  5.684063  3.789375     0.001223    0.006224    0.124839  
      3.789375  7.578750  3.789375     0.001223    0.006224    0.124839  
      5.684063  9.473438  3.789375     0.001223    0.006224    0.124839  
      1.894688  3.789375  5.684063     0.001223    0.006224    0.124839  
      3.789375  5.684063  5.684063     0.001223    0.006224    0.124839  
      5.684063  7.578750  5.684063     0.001223    0.006224    0.124839  
      7.578750  9.473438  5.684063     0.001223    0.006224    0.124839  
      3.789375  3.789375  7.578750     0.001223    0.006224    0.124839  
      5.684063  5.684063  7.578750     0.001223    0.006224    0.124839  
      7.578750  7.578750  7.578750     0.001223    0.006224    0.124839  
      9.473438  9.473438  7.578750     0.001223    0.006224    0.124839  
      5.684063  3.789375  9.473438     0.001223    0.006224    0.124839  
      7.578750  5.684063  9.473438     0.001223    0.006224    0.124839  
      9.473438  7.578750  9.473438     0.001223    0.006224    0.124839  
     11.368125  9.473438  9.473438     0.001223    0.006224    0.124839  
      0.000000  5.684063  5.684063     0.001223    0.006224    0.124839  
      1.894688  7.578750  5.684063     0.001223    0.006224    0.124839  
      3.789375  9.473438  5.684063     0.001223    0.006224    0.124839  
      5.684063 11.368125  5.684063     0.001223    0.006224    0.124839  
      1.894688  5.684063  7.578750     0.001223    0.006224    0.124839  
      3.789375  7.578750  7.578750     0.001223    0.006224    0.124839  
      5.684063  9.473438  7.578750     0.001223    0.006224    0.124839  
      7.578750 11.368125  7.578750     0.001223    0.006224    0.124839  
      3.789375  5.684063  9.473438     0.001223    0.006224    0.124839  
      5.684063  7.578750  9.473438     0.001223    0.006224    0.124839  
      7.578750  9.473438  9.473438     0.001223    0.006224    0.124839  
      9.473438 11.368125  9.473438     0.001223    0.006224    0.124839  
      5.684063  5.684063 11.368125     0.001223    0.006224    0.124839  
      7.578750  7.578750 11.368125     0.001223    0.006224    0.124839  
      9.473438  9.473438 11.368125     0.001223    0.006224    0.124839  
     11.368125 11.368125 11.368125     0.001223    0.006224    0.124839  
 
 192 f  =    0.000001 THz     0.000006 2PiTHz    0.000031 cm-1     0.000004 meV
             X         Y         Z           dx          dy          dz
      0.000000  0.000000  0.000000     0.111214   -0.057039    0.001755  
      1.894688  1.894688  0.000000     0.111214   -0.057039    0.001755  
      3.789375  3.789375  0.000000     0.111214   -0.057039    0.001755  
      5.684063  5.684063  0.000000     0.111214   -0.057039    0.001755  
      1.894688  0.000000  1.894688     0.111214   -0.057039    0.001755  
      3.789375  1.894688  1.894688     0.111214   -0.057039    0.001755  
      5.684063  3.789375  1.894688     0.111214   -0.057039    0.001755  
      7.578750  5.684063  1.894688     0.111214   -0.057039    0.001755  
      3.789375  0.000000  3.789375     0.111214   -0.057039    0.001755  
      5.684063  1.894688  3.789375     0.111214   -0.057039    0.001755  
      7.578750  3.789375  3.789375     0.111214   -0.057039    0.001755  
      9.473438  5.684063  3.789375     0.111214   -0.057039    0.001755  
      5.684063  0.000000  5.684063     0.111214   -0.057039    0.001755  
      7.578750  1.894688  5.684063     0.111214   -0.057039    0.001755  
      9.473438  3.789375  5.684063     0.111214   -0.057039    0.001755  
     11.368125  5.684063  5.684063     0.111214   -0.057039    0.001755  
      0.000000  1.894688  1.894688     0.111214   -0.057039    0.001755  
      1.894688  3.789375  1.894688     0.111214   -0.057039    0.001755  
      3.789375  5.684063  1.894688     0.111214   -0.057039    0.001755  
      5.684063  7.578750  1.894688     0.111214   -0.057039    0.001755  
      1.894688  1.894688  3.789375     0.111214   -0.057039    0.001755  
      3.789375  3.789375  3.789375     0.111214   -0.057039    0.001755  
      5.684063  5.684063  3.789375     0.111214   -0.057039    0.001755  
      7.578750  7.578750  3.789375     0.111214   -0.057039    0.001755  
      3.789375  1.894688  5.684063     0.111214   -0.057039    0.001755  
      5.684063  3.789375  5.684063     0.111214   -0.057039    0.001755  
      7.578750  5.684063  5.684063     0.111214   -0.057039    0.001755  
      9.473438  7.578750  5.684063     0.111214   -0.057039    0.001755  
      5.684063  1.894688  7.578750     0.111214   -0.057039    0.001755  
      7.578750  3.789375  7.578750     0.111214   -0.057039    0.001755  
      9.473438  5.684063  7.578750     0.111214   -0.057039    0.001755  
     11.368125  7.578750  7.578750     0.111214   -0.057039    0.001755  
      0.000000  3.789375  3.789375     0.111214   -0.057039    0.001755  
      1.894688  5.684063  3.789375     0.111214   -0.057039    0.001755  
      3.789375  7.578750  3.789375     0.111214   -0.057039    0.001755  
      5.684063  9.473438  3.789375     0.111214   -0.057039    0.001755  
      1.894688  3.789375  5.684063     0.111214   -0.057039    0.001755  
      3.789375  5.684063  5.684063     0.111214   -0.057039    0.001755  
      5.684063  7.578750  5.684063     0.111214   -0.057039    0.001755  
      7.578750  9.473438  5.684063     0.111214   -0.057039    0.001755  
      3.789375  3.789375  7.578750     0.111214   -0.057039    0.001755  
      5.684063  5.684063  7.578750     0.111214   -0.057039    0.001755  
      7.578750  7.578750  7.578750     0.111214   -0.057039    0.001755  
      9.473438  9.473438  7.578750     0.111214   -0.057039    0.001755  
      5.684063  3.789375  9.473438     0.111214   -0.057039    0.001755  
      7.578750  5.684063  9.473438     0.111214   -0.057039    0.001755  
      9.473438  7.578750  9.473438     0.111214   -0.057039    0.001755  
     11.368125  9.473438  9.473438     0.111214   -0.057039    0.001755  
      0.000000  5.684063  5.684063     0.111214   -0.057039    0.001755  
      1.894688  7.578750  5.684063     0.111214   -0.057039    0.001755  
      3.789375  9.473438  5.684063     0.111214   -0.057039    0.001755  
      5.684063 11.368125  5.684063     0.111214   -0.057039    0.001755  
      1.894688  5.684063  7.578750     0.111214   -0.057039    0.001755  
      3.789375  7.578750  7.578750     0.111214   -0.057039    0.001755  
      5.684063  9.473438  7.578750     0.111214   -0.057039    0.001755  
      7.578750 11.368125  7.578750     0.111214   -0.057039    0.001755  
      3.789375  5.684063  9.473438     0.111214   -0.057039    0.001755  
      5.684063  7.578750  9.473438     0.111214   -0.057039    0.001755  
      7.578750  9.473438  9.473438     0.111214   -0.057039    0.001755  
      9.473438 11.368125  9.473438     0.111214   -0.057039    0.001755  
      5.684063  5.684063 11.368125     0.111214   -0.057039    0.001755  
      7.578750  7.578750 11.368125     0.111214   -0.057039    0.001755  
      9.473438  9.473438 11.368125     0.111214   -0.057039    0.001755  
     11.368125 11.368125 11.368125     0.111214   -0.057039    0.001755  
 

 ELASTIC MODULI CONTR FROM IONIC RELAXATION (kBar)
 Direction    XX          YY          ZZ          XY          YZ          ZX
 --------------------------------------------------------------------------------
 XX          -0.0000      0.0000     -0.0000      0.0000      0.0000     -0.0000
 YY          -0.0000     -0.0000     -0.0000      0.0000     -0.0000      0.0000
 ZZ          -0.0000     -0.0000     -0.0000     -0.0000     -0.0000     -0.0000
 XY           0.0000      0.0000     -0.0000     -0.0000      0.0000     -0.0000
 YZ           0.0000     -0.0000     -0.0000      0.0000     -0.0000      0.0000
 ZX          -0.0000     -0.0000      0.0000     -0.0000      0.0000     -0.0000
 --------------------------------------------------------------------------------



--------------------------------------------------------------------------------------------------------


  LATTYP: Found a face centered cubic cell.
 ALAT       =    15.1575000000
  
  Lattice vectors:
  
 A1 = (   0.0000000000,   7.5787500000,   7.5787500000)
 A2 = (   7.5787500000,   0.0000000000,   7.5787500000)
 A3 = (   7.5787500000,   7.5787500000,   0.0000000000)


Analysis of symmetry for initial positions (statically):
=====================================================================
 Subroutine PRICEL returns following result:
 
  LATTYP: Found a face centered cubic cell.
 ALAT       =     3.7893750000
  
  Lattice vectors:
  
 A1 = (   0.0000000000,   1.8946875000,   1.8946875000)
 A2 = (   1.8946875000,   0.0000000000,   1.8946875000)
 A3 = (   1.8946875000,   1.8946875000,   0.0000000000)
 
  64 primitive cells build up your supercell.
 

 Routine SETGRP: Setting up the symmetry group for a 
 face centered cubic supercell.


 Subroutine GETGRP returns: Found 48 space group operations
 (whereof 48 operations were pure point group operations)
 out of a pool of 48 trial point group operations.


The static configuration has the point symmetry O_h .


Analysis of symmetry for dynamics (positions and initial velocities):
=====================================================================
 Subroutine PRICEL returns following result:
 
  LATTYP: Found a face centered cubic cell.
 ALAT       =     3.7893750000
  
  Lattice vectors:
  
 A1 = (   0.0000000000,   1.8946875000,   1.8946875000)
 A2 = (   1.8946875000,   0.0000000000,   1.8946875000)
 A3 = (   1.8946875000,   1.8946875000,   0.0000000000)
 
  64 primitive cells build up your supercell.
 

 Routine SETGRP: Setting up the symmetry group for a 
 face centered cubic supercell.


 Subroutine GETGRP returns: Found 48 space group operations
 (whereof 48 operations were pure point group operations)
 out of a pool of 48 trial point group operations.


The dynamic configuration has the point symmetry O_h .


Analysis of structural, dynamic, and magnetic symmetry:
=====================================================================
 Subroutine PRICEL returns following result:
 
  LATTYP: Found a face centered cubic cell.
 ALAT       =     3.7893750000
  
  Lattice vectors:
  
 A1 = (   0.0000000000,   1.8946875000,   1.8946875000)
 A2 = (   1.8946875000,   0.0000000000,   1.8946875000)
 A3 = (   1.8946875000,   1.8946875000,   0.0000000000)
 
  64 primitive cells build up your supercell.
 

 Routine SETGRP: Setting up the symmetry group for a 
 face centered cubic supercell.


 Subroutine GETGRP returns: Found 48 space group operations
 (whereof 48 operations were pure point group operations)
 out of a pool of 48 trial point group operations.


The magnetic configuration has the point symmetry O_h .


 Subroutine INISYM returns: Found 48 space group operations
 (whereof 48 operations are pure point group operations),
 and found    64 'primitive' translations

 
 KPOINTS: Zr 15x15x15                             

Automatic generation of k-mesh.
Space group operators:
 irot       det(A)        alpha          n_x          n_y          n_z        tau_x        tau_y        tau_z
    1     1.000000     0.000001     1.000000     0.000000     0.000000     0.000000     0.000000     0.000000
    2    -1.000000     0.000001     1.000000     0.000000     0.000000     0.000000     0.000000     0.000000
    3     1.000000   120.000000    -0.577350    -0.577350    -0.577350     0.000000     0.000000     0.000000
    4    -1.000000   120.000000    -0.577350    -0.577350    -0.577350     0.000000     0.000000     0.000000
    5     1.000000   120.000000     0.577350     0.577350     0.577350     0.000000     0.000000     0.000000
    6    -1.000000   120.000000     0.577350     0.577350     0.577350     0.000000     0.000000     0.000000
    7     1.000000    90.000000     0.000000     0.000000    -1.000000     0.000000     0.000000     0.000000
    8    -1.000000    90.000000     0.000000     0.000000    -1.000000     0.000000     0.000000     0.000000
    9     1.000000   180.000000     0.000000     0.707107     0.707107     0.000000     0.000000     0.000000
   10    -1.000000   180.000000     0.000000     0.707107     0.707107     0.000000     0.000000     0.000000
   11     1.000000    90.000000     0.000000     1.000000     0.000000     0.000000     0.000000     0.000000
   12    -1.000000    90.000000     0.000000     1.000000     0.000000     0.000000     0.000000     0.000000
   13     1.000000   180.000000     0.000000     0.000000     1.000000     0.000000     0.000000     0.000000
   14    -1.000000   180.000000     0.000000     0.000000     1.000000     0.000000     0.000000     0.000000
   15     1.000000   120.000000    -0.577350     0.577350     0.577350     0.000000     0.000000     0.000000
   16    -1.000000   120.000000    -0.577350     0.577350     0.577350     0.000000     0.000000     0.000000
   17     1.000000   120.000000    -0.577350     0.577350    -0.577350     0.000000     0.000000     0.000000
   18    -1.000000   120.000000    -0.577350     0.577350    -0.577350     0.000000     0.000000     0.000000
   19     1.000000    90.000000     0.000000     0.000000     1.000000     0.000000     0.000000     0.000000
   20    -1.000000    90.000000     0.000000     0.000000     1.000000     0.000000     0.000000     0.000000
   21     1.000000    90.000000    -1.000000     0.000000     0.000000     0.000000     0.000000     0.000000
   22    -1.000000    90.000000    -1.000000     0.000000     0.000000     0.000000     0.000000     0.000000
   23     1.000000   180.000000     0.707107     0.000000     0.707107     0.000000     0.000000     0.000000
   24    -1.000000   180.000000     0.707107     0.000000     0.707107     0.000000     0.000000     0.000000
   25     1.000000   120.000000     0.577350    -0.577350     0.577350     0.000000     0.000000     0.000000
   26    -1.000000   120.000000     0.577350    -0.577350     0.577350     0.000000     0.000000     0.000000
   27     1.000000   120.000000    -0.577350    -0.577350     0.577350     0.000000     0.000000     0.000000
   28    -1.000000   120.000000    -0.577350    -0.577350     0.577350     0.000000     0.000000     0.000000
   29     1.000000   180.000000     1.000000     0.000000     0.000000     0.000000     0.000000     0.000000
   30    -1.000000   180.000000     1.000000     0.000000     0.000000     0.000000     0.000000     0.000000
   31     1.000000    90.000000     0.000000    -1.000000     0.000000     0.000000     0.000000     0.000000
   32    -1.000000    90.000000     0.000000    -1.000000     0.000000     0.000000     0.000000     0.000000
   33     1.000000   180.000000     0.707107     0.707107     0.000000     0.000000     0.000000     0.000000
   34    -1.000000   180.000000     0.707107     0.707107     0.000000     0.000000     0.000000     0.000000
   35     1.000000    90.000000     1.000000     0.000000     0.000000     0.000000     0.000000     0.000000
   36    -1.000000    90.000000     1.000000     0.000000     0.000000     0.000000     0.000000     0.000000
   37     1.000000   120.000000     0.577350    -0.577350    -0.577350     0.000000     0.000000     0.000000
   38    -1.000000   120.000000     0.577350    -0.577350    -0.577350     0.000000     0.000000     0.000000
   39     1.000000   180.000000     0.000000     1.000000     0.000000     0.000000     0.000000     0.000000
   40    -1.000000   180.000000     0.000000     1.000000     0.000000     0.000000     0.000000     0.000000
   41     1.000000   120.000000     0.577350     0.577350    -0.577350     0.000000     0.000000     0.000000
   42    -1.000000   120.000000     0.577350     0.577350    -0.577350     0.000000     0.000000     0.000000
   43     1.000000   180.000000     0.000000    -0.707107     0.707107     0.000000     0.000000     0.000000
   44    -1.000000   180.000000     0.000000    -0.707107     0.707107     0.000000     0.000000     0.000000
   45     1.000000   180.000000     0.707107    -0.707107     0.000000     0.000000     0.000000     0.000000
   46    -1.000000   180.000000     0.707107    -0.707107     0.000000     0.000000     0.000000     0.000000
   47     1.000000   180.000000     0.707107     0.000000    -0.707107     0.000000     0.000000     0.000000
   48    -1.000000   180.000000     0.707107     0.000000    -0.707107     0.000000     0.000000     0.000000
 
 Subroutine IBZKPT returns following result:
 ===========================================
 
 Found      4 irreducible k-points:
 
 Following reciprocal coordinates:
            Coordinates               Weight
  0.000000  0.000000  0.000000      1.000000
  0.333333  0.000000  0.000000      8.000000
  0.333333  0.333333  0.000000      6.000000
 -0.333333  0.333333  0.000000     12.000000
 
 Following cartesian coordinates:
            Coordinates               Weight
  0.000000  0.000000  0.000000      1.000000
 -0.021991  0.021991  0.021991      8.000000
  0.000000  0.000000  0.043983      6.000000
  0.043983 -0.043983  0.000000     12.000000
 
 writing wavefunctions
     LOOP+:  cpu time14928.0696: real time14916.2476
    4ORBIT:  cpu time    0.0000: real time    0.0000

 total amount of memory used by VASP on root node  1656593. kBytes
========================================================================

   base      :      30000. kBytes
   nonlr-proj:      53955. kBytes
   fftplans  :      94700. kBytes
   grid      :     227360. kBytes
   one-center:       1990. kBytes
   wavefun   :    1248588. kBytes
 
  
  
 General timing and accounting informations for this job:
 ========================================================
  
                  Total CPU time used (sec):    67813.047
                            User time (sec):    67798.755
                          System time (sec):       14.295
                         Elapsed time (sec):    68567.853
  
                   Maximum memory used (kb):     4152844.
                   Average memory used (kb):           0.
  
                          Minor page faults:       343353
                          Major page faults:            0
                 Voluntary context switches:          932
