<?xml version="1.0" encoding="ISO-8859-1"?>
<modeling>
 <generator>
  <i name="program" type="string">vasp </i>
  <i name="version" type="string">5.4.1  </i>
  <i name="subversion" type="string">05Feb16 (build Oct 12 2016 17:31:35) complex                          parallel </i>
  <i name="platform" type="string">IFC91_ompi </i>
  <i name="date" type="string">2020 09 07 </i>
  <i name="time" type="string">16:21:12 </i>
 </generator>
 <incar>
  <i type="string" name="SYSTEM"> phonon of Zr bcc - omiga</i>
  <i type="string" name="PREC">a</i>
  <i type="int" name="ISPIN">     2</i>
  <i type="int" name="IBRION">     6</i>
  <i type="int" name="NFREE">     4</i>
  <i name="EDIFF">      0.00000100</i>
  <i type="int" name="NSW">     1</i>
  <v name="MAGMOM">      1.00000000      1.00000000      1.00000000      1.00000000      1.00000000      1.00000000      1.00000000      1.00000000      1.00000000      1.00000000      1.00000000      1.00000000      1.00000000      1.00000000      1.00000000      1.00000000      1.00000000      1.00000000      1.00000000      1.00000000
      1.00000000      1.00000000      1.00000000      1.00000000      1.00000000      1.00000000      1.00000000      1.00000000      1.00000000      1.00000000      1.00000000      1.00000000      1.00000000      1.00000000      1.00000000      1.00000000      1.00000000      1.00000000      1.00000000      1.00000000
      1.00000000      1.00000000      1.00000000      1.00000000      1.00000000      1.00000000      1.00000000      1.00000000      1.00000000      1.00000000      1.00000000      1.00000000      1.00000000      1.00000000      1.00000000      1.00000000      1.00000000      1.00000000      1.00000000      1.00000000
      1.00000000      1.00000000      1.00000000      1.00000000</v>
  <i type="string" name="LREAL">Auto</i>
  <i type="int" name="ISMEAR">     1</i>
  <i type="int" name="NWRITE">     0</i>
  <v type="int" name="KPOINT_BSE">    -1     0     0     0</v>
 </incar>
 <kpoints>
  <generation param="Gamma">
   <v type="int" name="divisions">       3        3        3 </v>
   <v name="usershift">      0.00000000       0.00000000       0.00000000 </v>
   <v name="genvec1">      0.33333333       0.00000000       0.00000000 </v>
   <v name="genvec2">      0.00000000       0.33333333       0.00000000 </v>
   <v name="genvec3">      0.00000000       0.00000000       0.33333333 </v>
   <v name="shift">      0.00000000       0.00000000       0.00000000 </v>
  </generation>
  <varray name="kpointlist" >
   <v>       0.00000000       0.00000000       0.00000000 </v>
   <v>       0.33333333       0.00000000       0.00000000 </v>
   <v>       0.33333333       0.33333333       0.00000000 </v>
   <v>      -0.33333333       0.33333333       0.00000000 </v>
  </varray>
  <varray name="weights" >
   <v>       0.03703704 </v>
   <v>       0.29629630 </v>
   <v>       0.22222222 </v>
   <v>       0.44444444 </v>
  </varray>
 </kpoints>
 <parameters>
  <separator name="general" >
   <i type="string" name="SYSTEM">phonon of Zr bcc - omiga</i>
   <i type="logical" name="LCOMPAT"> F  </i>
  </separator>
  <separator name="electronic" >
   <i type="string" name="PREC">a</i>
   <i name="ENMAX">    367.94500000</i>
   <i name="ENAUG">    703.44300000</i>
   <i name="EDIFF">      0.00000100</i>
   <i type="int" name="IALGO">    38</i>
   <i type="int" name="IWAVPR">    11</i>
   <i type="int" name="NBANDS">   646</i>
   <i name="NELECT">   1024.00000000</i>
   <i type="int" name="TURBO">     0</i>
   <i type="int" name="IRESTART">     0</i>
   <i type="int" name="NREBOOT">     0</i>
   <i type="int" name="NMIN">     0</i>
   <i name="EREF">      0.00000000</i>
   <separator name="electronic smearing" >
    <i type="int" name="ISMEAR">     1</i>
    <i name="SIGMA">      0.20000000</i>
    <i name="KSPACING">      0.50000000</i>
    <i type="logical" name="KGAMMA"> T  </i>
   </separator>
   <separator name="electronic projectors" >
    <i type="logical" name="LREAL"> T  </i>
    <v name="ROPT">     -0.00025000</v>
    <i type="int" name="LMAXPAW">  -100</i>
    <i type="int" name="LMAXMIX">     2</i>
    <i type="logical" name="NLSPLINE"> F  </i>
   </separator>
   <separator name="electronic startup" >
    <i type="int" name="ISTART">     0</i>
    <i type="int" name="ICHARG">     2</i>
    <i type="int" name="INIWAV">     1</i>
   </separator>
   <separator name="electronic spin" >
    <i type="int" name="ISPIN">     2</i>
    <i type="logical" name="LNONCOLLINEAR"> F  </i>
    <v name="MAGMOM">      1.00000000      1.00000000      1.00000000      1.00000000      1.00000000      1.00000000      1.00000000      1.00000000      1.00000000      1.00000000      1.00000000      1.00000000      1.00000000      1.00000000      1.00000000      1.00000000      1.00000000      1.00000000      1.00000000      1.00000000
      1.00000000      1.00000000      1.00000000      1.00000000      1.00000000      1.00000000      1.00000000      1.00000000      1.00000000      1.00000000      1.00000000      1.00000000      1.00000000      1.00000000      1.00000000      1.00000000      1.00000000      1.00000000      1.00000000      1.00000000
      1.00000000      1.00000000      1.00000000      1.00000000      1.00000000      1.00000000      1.00000000      1.00000000      1.00000000      1.00000000      1.00000000      1.00000000      1.00000000      1.00000000      1.00000000      1.00000000      1.00000000      1.00000000      1.00000000      1.00000000
      1.00000000      1.00000000      1.00000000      1.00000000</v>
    <i name="NUPDOWN">     -1.00000000</i>
    <i type="logical" name="LSORBIT"> F  </i>
    <v name="SAXIS">      0.00000000      0.00000000      1.00000000</v>
    <i type="logical" name="LSPIRAL"> F  </i>
    <v name="QSPIRAL">      0.00000000      0.00000000      0.00000000</v>
    <i type="logical" name="LZEROZ"> F  </i>
   </separator>
   <separator name="electronic exchange-correlation" >
    <i type="logical" name="LASPH"> F  </i>
    <i type="logical" name="LMETAGGA"> F  </i>
   </separator>
   <separator name="electronic convergence" >
    <i type="int" name="NELM">    60</i>
    <i type="int" name="NELMDL">    -5</i>
    <i type="int" name="NELMIN">     2</i>
    <i name="ENINI">    367.94500000</i>
    <separator name="electronic convergence detail" >
     <i type="logical" name="LDIAG"> T  </i>
     <i type="logical" name="LSUBROT"> F  </i>
     <i name="WEIMIN">      0.00100000</i>
     <i name="EBREAK">      0.00000000</i>
     <i name="DEPER">      0.30000000</i>
     <i type="int" name="NRMM">     4</i>
     <i name="TIME">      0.40000000</i>
    </separator>
   </separator>
   <separator name="electronic mixer" >
    <i name="AMIX">      0.40000000</i>
    <i name="BMIX">      1.00000000</i>
    <i name="AMIN">      0.10000000</i>
    <i name="AMIX_MAG">      1.60000000</i>
    <i name="BMIX_MAG">      1.00000000</i>
    <separator name="electronic mixer details" >
     <i type="int" name="IMIX">     4</i>
     <i type="logical" name="MIXFIRST"> F  </i>
     <i type="int" name="MAXMIX">   -45</i>
     <i name="WC">    100.00000000</i>
     <i type="int" name="INIMIX">     1</i>
     <i type="int" name="MIXPRE">     1</i>
     <i type="int" name="MREMOVE">     5</i>
    </separator>
   </separator>
   <separator name="electronic dipolcorrection" >
    <i type="logical" name="LDIPOL"> F  </i>
    <i type="logical" name="LMONO"> F  </i>
    <i type="int" name="IDIPOL">     0</i>
    <i name="EPSILON">      1.00000000</i>
    <v name="DIPOL">   -100.00000000   -100.00000000   -100.00000000</v>
    <i name="EFIELD">      0.00000000</i>
   </separator>
  </separator>
  <separator name="grids" >
   <i type="int" name="NGX">    70</i>
   <i type="int" name="NGY">    70</i>
   <i type="int" name="NGZ">    70</i>
   <i type="int" name="NGXF">   140</i>
   <i type="int" name="NGYF">   140</i>
   <i type="int" name="NGZF">   140</i>
   <i type="logical" name="ADDGRID"> F  </i>
  </separator>
  <separator name="ionic" >
   <i type="int" name="NSW">   805</i>
   <i type="int" name="IBRION">     6</i>
   <i type="int" name="ISIF">     2</i>
   <i name="PSTRESS">      0.00000000</i>
   <i name="EDIFFG">      0.00001000</i>
   <i type="int" name="NFREE">     4</i>
   <i name="POTIM">      0.50000000</i>
   <i name="SMASS">     -3.00000000</i>
   <i name="SCALEE">      1.00000000</i>
  </separator>
  <separator name="ionic md" >
   <i name="TEBEG">      0.00010000</i>
   <i name="TEEND">      0.00010000</i>
   <i type="int" name="NBLOCK">     1</i>
   <i type="int" name="KBLOCK">     1</i>
   <i type="int" name="NPACO">   256</i>
   <i name="APACO">     16.00000000</i>
  </separator>
  <separator name="symmetry" >
   <i type="int" name="ISYM">     2</i>
   <i name="SYMPREC">      0.00001000</i>
  </separator>
  <separator name="dos" >
   <i type="logical" name="LORBIT"> F  </i>
   <v name="RWIGS">     -1.00000000</v>
   <i type="int" name="NEDOS">   301</i>
   <i name="EMIN">     10.00000000</i>
   <i name="EMAX">    -10.00000000</i>
   <i name="EFERMI">      0.00000000</i>
  </separator>
  <separator name="writing" >
   <i type="int" name="NWRITE">     0</i>
   <i type="logical" name="LWAVE"> T  </i>
   <i type="logical" name="LCHARG"> T  </i>
   <i type="logical" name="LPARD"> F  </i>
   <i type="logical" name="LVTOT"> F  </i>
   <i type="logical" name="LVHAR"> F  </i>
   <i type="logical" name="LELF"> F  </i>
   <i type="logical" name="LOPTICS"> F  </i>
   <v name="STM">      0.00000000      0.00000000      0.00000000      0.00000000      0.00000000      0.00000000      0.00000000</v>
  </separator>
  <separator name="performance" >
   <i type="int" name="NPAR">     1</i>
   <i type="int" name="NSIM">     4</i>
   <i type="int" name="NBLK">    -1</i>
   <i type="logical" name="LPLANE"> T  </i>
   <i type="logical" name="LSCALAPACK"> T  </i>
   <i type="logical" name="LSCAAWARE"> F  </i>
   <i type="logical" name="LSCALU"> F  </i>
   <i type="logical" name="LASYNC"> F  </i>
   <i type="logical" name="LORBITALREAL"> F  </i>
  </separator>
  <separator name="miscellaneous" >
   <i type="int" name="IDIOT">     3</i>
   <i type="logical" name="LMUSIC"> F  </i>
   <v name="POMASS">     58.69000000</v>
   <v name="DARWINR">      0.00000000</v>
   <v name="DARWINV">      1.00000000</v>
   <i type="logical" name="LCORR"> T  </i>
  </separator>
  <i type="logical" name="GGA_COMPAT"> T  </i>
  <i type="logical" name="LBERRY"> F  </i>
  <i type="int" name="ICORELEVEL">     0</i>
  <i type="logical" name="LDAU"> F  </i>
  <i type="int" name="I_CONSTRAINED_M">     0</i>
  <separator name="electronic exchange-correlation" >
   <i type="string" name="GGA">--</i>
   <i type="int" name="VOSKOWN">     0</i>
   <i type="logical" name="LHFCALC"> F  </i>
   <i type="string" name="PRECFOCK"></i>
   <i type="logical" name="LSYMGRAD"> F  </i>
   <i type="logical" name="LHFONE"> F  </i>
   <i type="logical" name="LRHFCALC"> F  </i>
   <i type="logical" name="LTHOMAS"> F  </i>
   <i type="logical" name="LMODELHF"> F  </i>
   <i name="ENCUT4O">     -1.00000000</i>
   <i type="int" name="EXXOEP">     0</i>
   <i type="int" name="FOURORBIT">     0</i>
   <i name="AEXX">      0.00000000</i>
   <i name="HFALPHA">      0.00000000</i>
   <i name="MCALPHA">      0.00000000</i>
   <i name="ALDAX">      1.00000000</i>
   <i name="AGGAX">      1.00000000</i>
   <i name="ALDAC">      1.00000000</i>
   <i name="AGGAC">      1.00000000</i>
   <i type="int" name="NKREDX">     1</i>
   <i type="int" name="NKREDY">     1</i>
   <i type="int" name="NKREDZ">     1</i>
   <i type="logical" name="SHIFTRED"> F  </i>
   <i type="logical" name="ODDONLY"> F  </i>
   <i type="logical" name="EVENONLY"> F  </i>
   <i type="int" name="LMAXFOCK">     0</i>
   <i type="int" name="NMAXFOCKAE">     0</i>
   <i type="logical" name="LFOCKAEDFT"> F  </i>
   <i name="HFSCREEN">      0.00000000</i>
   <i name="HFSCREENC">      0.00000000</i>
   <i type="int" name="NBANDSGWLOW">     0</i>
  </separator>
  <separator name="vdW DFT" >
   <i type="logical" name="LUSE_VDW"> F  </i>
   <i name="Zab_VDW">     -0.84910000</i>
   <i name="PARAM1">      0.12340000</i>
   <i name="PARAM2">      1.00000000</i>
   <i name="PARAM3">      0.00000000</i>
  </separator>
  <separator name="model GW" >
   <i type="int" name="MODEL_GW">     0</i>
   <i name="MODEL_EPS0">      8.16195161</i>
   <i name="MODEL_ALPHA">      1.00000000</i>
  </separator>
  <separator name="linear response parameters" >
   <i type="logical" name="LEPSILON"> F  </i>
   <i type="logical" name="LRPA"> F  </i>
   <i type="logical" name="LNABLA"> F  </i>
   <i type="logical" name="LVEL"> F  </i>
   <i type="int" name="KINTER">     0</i>
   <i name="CSHIFT">      0.10000000</i>
   <i name="OMEGAMAX">     -1.00000000</i>
   <i name="DEG_THRESHOLD">      0.00200000</i>
  </separator>
  <separator name="orbital magnetization" >
   <i type="logical" name="NUCIND"> F  </i>
   <v name="MAGPOS">      0.00000000      0.00000000      0.00000000</v>
   <i type="logical" name="LNICSALL"> T  </i>
   <i type="logical" name="ORBITALMAG"> F  </i>
   <i type="logical" name="LMAGBLOCH"> F  </i>
   <i type="logical" name="LCHIMAG"> F  </i>
   <i type="logical" name="LGAUGE"> T  </i>
   <i type="int" name="MAGATOM">     0</i>
   <v name="MAGDIPOL">      0.00000000      0.00000000      0.00000000</v>
   <v name="AVECCONST">      0.00000000      0.00000000      0.00000000</v>
  </separator>
  <separator name="response functions" >
   <i type="logical" name="LADDER"> F  </i>
   <i type="logical" name="LFXC"> F  </i>
   <i type="logical" name="LHARTREE"> T  </i>
   <i type="int" name="IBSE">     0</i>
   <v type="int" name="KPOINT">    -1     0     0     0</v>
   <i type="logical" name="LTCTE"> F  </i>
   <i type="logical" name="LTETE"> F  </i>
   <i type="logical" name="LTRIPLET"> F  </i>
   <i type="logical" name="LFXCEPS"> F  </i>
   <i type="logical" name="LFXHEG"> F  </i>
   <i type="int" name="NATURALO">     0</i>
   <i type="logical" name="L2ORDER"> F  </i>
   <i type="logical" name="LUSEW"> F  </i>
   <i name="ENCUTGW">     -2.00000000</i>
   <i name="ENCUTGWSOFT">     -2.00000000</i>
   <i name="ENCUTLF">     -1.00000000</i>
   <i type="int" name="LMAXMP2">    -1</i>
   <i name="SCISSOR">      0.00000000</i>
   <i type="int" name="NOMEGA">     0</i>
   <i type="int" name="NOMEGAR">     0</i>
   <i type="int" name="NBANDSGW">    -1</i>
   <i type="int" name="NBANDSO">    -1</i>
   <i type="int" name="NBANDSV">    -1</i>
   <i type="int" name="NELM">     1</i>
   <i type="int" name="NELMHF">     1</i>
   <i type="int" name="DIM">     3</i>
   <i type="int" name="ANTIRES">     0</i>
   <i name="OMEGAMAX">    -30.00000000</i>
   <i name="OMEGAMIN">    -30.00000000</i>
   <i name="OMEGATL">   -200.00000000</i>
   <i type="int" name="OMEGAGRID">     0</i>
   <i name="CSHIFT">     -0.10000000</i>
   <i type="logical" name="SELFENERGY"> F  </i>
   <i type="logical" name="LSPECTRAL"> F  </i>
   <i type="logical" name="LSPECTRALGW"> F  </i>
   <i type="logical" name="LSINGLES"> F  </i>
   <i type="logical" name="LFERMIGW"> F  </i>
   <i type="logical" name="ODDONLYGW"> F  </i>
   <i type="logical" name="EVENONLYGW"> F  </i>
   <i type="int" name="NKREDLFX">     1</i>
   <i type="int" name="NKREDLFY">     1</i>
   <i type="int" name="NKREDLFZ">     1</i>
   <i type="int" name="MAXMEM">  1800</i>
   <i type="int" name="TELESCOPE">     0</i>
   <i type="int" name="TAUPAR">     1</i>
   <i type="int" name="OMEGAPAR">    -1</i>
   <i name="LAMBDA">      1.00000000</i>
  </separator>
  <separator name="External order field" >
   <i name="OFIELD_KAPPA">      0.00000000</i>
   <v name="OFIELD_K">      0.00000000      0.00000000      0.00000000</v>
   <i name="OFIELD_Q6_NEAR">      0.00000000</i>
   <i name="OFIELD_Q6_FAR">      0.00000000</i>
   <i name="OFIELD_A">      0.00000000</i>
  </separator>
 </parameters>
 <atominfo>
  <atoms>      64 </atoms>
  <types>       1 </types>
  <array name="atoms" >
   <dimension dim="1">ion</dimension>
   <field type="string">element</field>
   <field type="int">atomtype</field>
   <set>
    <rc><c>Ni</c><c>   1</c></rc>
    <rc><c>Ni</c><c>   1</c></rc>
    <rc><c>Ni</c><c>   1</c></rc>
    <rc><c>Ni</c><c>   1</c></rc>
    <rc><c>Ni</c><c>   1</c></rc>
    <rc><c>Ni</c><c>   1</c></rc>
    <rc><c>Ni</c><c>   1</c></rc>
    <rc><c>Ni</c><c>   1</c></rc>
    <rc><c>Ni</c><c>   1</c></rc>
    <rc><c>Ni</c><c>   1</c></rc>
    <rc><c>Ni</c><c>   1</c></rc>
    <rc><c>Ni</c><c>   1</c></rc>
    <rc><c>Ni</c><c>   1</c></rc>
    <rc><c>Ni</c><c>   1</c></rc>
    <rc><c>Ni</c><c>   1</c></rc>
    <rc><c>Ni</c><c>   1</c></rc>
    <rc><c>Ni</c><c>   1</c></rc>
    <rc><c>Ni</c><c>   1</c></rc>
    <rc><c>Ni</c><c>   1</c></rc>
    <rc><c>Ni</c><c>   1</c></rc>
    <rc><c>Ni</c><c>   1</c></rc>
    <rc><c>Ni</c><c>   1</c></rc>
    <rc><c>Ni</c><c>   1</c></rc>
    <rc><c>Ni</c><c>   1</c></rc>
    <rc><c>Ni</c><c>   1</c></rc>
    <rc><c>Ni</c><c>   1</c></rc>
    <rc><c>Ni</c><c>   1</c></rc>
    <rc><c>Ni</c><c>   1</c></rc>
    <rc><c>Ni</c><c>   1</c></rc>
    <rc><c>Ni</c><c>   1</c></rc>
    <rc><c>Ni</c><c>   1</c></rc>
    <rc><c>Ni</c><c>   1</c></rc>
    <rc><c>Ni</c><c>   1</c></rc>
    <rc><c>Ni</c><c>   1</c></rc>
    <rc><c>Ni</c><c>   1</c></rc>
    <rc><c>Ni</c><c>   1</c></rc>
    <rc><c>Ni</c><c>   1</c></rc>
    <rc><c>Ni</c><c>   1</c></rc>
    <rc><c>Ni</c><c>   1</c></rc>
    <rc><c>Ni</c><c>   1</c></rc>
    <rc><c>Ni</c><c>   1</c></rc>
    <rc><c>Ni</c><c>   1</c></rc>
    <rc><c>Ni</c><c>   1</c></rc>
    <rc><c>Ni</c><c>   1</c></rc>
    <rc><c>Ni</c><c>   1</c></rc>
    <rc><c>Ni</c><c>   1</c></rc>
    <rc><c>Ni</c><c>   1</c></rc>
    <rc><c>Ni</c><c>   1</c></rc>
    <rc><c>Ni</c><c>   1</c></rc>
    <rc><c>Ni</c><c>   1</c></rc>
    <rc><c>Ni</c><c>   1</c></rc>
    <rc><c>Ni</c><c>   1</c></rc>
    <rc><c>Ni</c><c>   1</c></rc>
    <rc><c>Ni</c><c>   1</c></rc>
    <rc><c>Ni</c><c>   1</c></rc>
    <rc><c>Ni</c><c>   1</c></rc>
    <rc><c>Ni</c><c>   1</c></rc>
    <rc><c>Ni</c><c>   1</c></rc>
    <rc><c>Ni</c><c>   1</c></rc>
    <rc><c>Ni</c><c>   1</c></rc>
    <rc><c>Ni</c><c>   1</c></rc>
    <rc><c>Ni</c><c>   1</c></rc>
    <rc><c>Ni</c><c>   1</c></rc>
    <rc><c>Ni</c><c>   1</c></rc>
   </set>
  </array>
  <array name="atomtypes" >
   <dimension dim="1">type</dimension>
   <field type="int">atomspertype</field>
   <field type="string">element</field>
   <field>mass</field>
   <field>valence</field>
   <field type="string">pseudopotential</field>
   <set>
    <rc><c>  64</c><c>Ni</c><c>     58.69000000</c><c>     16.00000000</c><c> PAW_PBE Ni_pv 06Sep2000                </c></rc>
   </set>
  </array>
 </atominfo>
 <structure name="initialpos" >
  <crystal>
   <varray name="basis" >
    <v>       0.00000000       7.57875000       7.57875000 </v>
    <v>       7.57875000       0.00000000       7.57875000 </v>
    <v>       7.57875000       7.57875000       0.00000000 </v>
   </varray>
   <i name="volume">    870.60817206 </i>
   <varray name="rec_basis" >
    <v>      -0.06597394       0.06597394       0.06597394 </v>
    <v>       0.06597394      -0.06597394       0.06597394 </v>
    <v>       0.06597394       0.06597394      -0.06597394 </v>
   </varray>
  </crystal>
  <varray name="positions" >
   <v>       0.00000000       0.00000000       0.00000000 </v>
   <v>       0.00000000       0.00000000       0.25000000 </v>
   <v>       0.00000000       0.00000000       0.50000000 </v>
   <v>       0.00000000       0.00000000       0.75000000 </v>
   <v>       0.00000000       0.25000000       0.00000000 </v>
   <v>       0.00000000       0.25000000       0.25000000 </v>
   <v>       0.00000000       0.25000000       0.50000000 </v>
   <v>       0.00000000       0.25000000       0.75000000 </v>
   <v>       0.00000000       0.50000000       0.00000000 </v>
   <v>       0.00000000       0.50000000       0.25000000 </v>
   <v>       0.00000000       0.50000000       0.50000000 </v>
   <v>       0.00000000       0.50000000       0.75000000 </v>
   <v>       0.00000000       0.75000000       0.00000000 </v>
   <v>       0.00000000       0.75000000       0.25000000 </v>
   <v>       0.00000000       0.75000000       0.50000000 </v>
   <v>       0.00000000       0.75000000       0.75000000 </v>
   <v>       0.25000000       0.00000000       0.00000000 </v>
   <v>       0.25000000       0.00000000       0.25000000 </v>
   <v>       0.25000000       0.00000000       0.50000000 </v>
   <v>       0.25000000       0.00000000       0.75000000 </v>
   <v>       0.25000000       0.25000000       0.00000000 </v>
   <v>       0.25000000       0.25000000       0.25000000 </v>
   <v>       0.25000000       0.25000000       0.50000000 </v>
   <v>       0.25000000       0.25000000       0.75000000 </v>
   <v>       0.25000000       0.50000000       0.00000000 </v>
   <v>       0.25000000       0.50000000       0.25000000 </v>
   <v>       0.25000000       0.50000000       0.50000000 </v>
   <v>       0.25000000       0.50000000       0.75000000 </v>
   <v>       0.25000000       0.75000000       0.00000000 </v>
   <v>       0.25000000       0.75000000       0.25000000 </v>
   <v>       0.25000000       0.75000000       0.50000000 </v>
   <v>       0.25000000       0.75000000       0.75000000 </v>
   <v>       0.50000000       0.00000000       0.00000000 </v>
   <v>       0.50000000       0.00000000       0.25000000 </v>
   <v>       0.50000000       0.00000000       0.50000000 </v>
   <v>       0.50000000       0.00000000       0.75000000 </v>
   <v>       0.50000000       0.25000000       0.00000000 </v>
   <v>       0.50000000       0.25000000       0.25000000 </v>
   <v>       0.50000000       0.25000000       0.50000000 </v>
   <v>       0.50000000       0.25000000       0.75000000 </v>
   <v>       0.50000000       0.50000000       0.00000000 </v>
   <v>       0.50000000       0.50000000       0.25000000 </v>
   <v>       0.50000000       0.50000000       0.50000000 </v>
   <v>       0.50000000       0.50000000       0.75000000 </v>
   <v>       0.50000000       0.75000000       0.00000000 </v>
   <v>       0.50000000       0.75000000       0.25000000 </v>
   <v>       0.50000000       0.75000000       0.50000000 </v>
   <v>       0.50000000       0.75000000       0.75000000 </v>
   <v>       0.75000000       0.00000000       0.00000000 </v>
   <v>       0.75000000       0.00000000       0.25000000 </v>
   <v>       0.75000000       0.00000000       0.50000000 </v>
   <v>       0.75000000       0.00000000       0.75000000 </v>
   <v>       0.75000000       0.25000000       0.00000000 </v>
   <v>       0.75000000       0.25000000       0.25000000 </v>
   <v>       0.75000000       0.25000000       0.50000000 </v>
   <v>       0.75000000       0.25000000       0.75000000 </v>
   <v>       0.75000000       0.50000000       0.00000000 </v>
   <v>       0.75000000       0.50000000       0.25000000 </v>
   <v>       0.75000000       0.50000000       0.50000000 </v>
   <v>       0.75000000       0.50000000       0.75000000 </v>
   <v>       0.75000000       0.75000000       0.00000000 </v>
   <v>       0.75000000       0.75000000       0.25000000 </v>
   <v>       0.75000000       0.75000000       0.50000000 </v>
   <v>       0.75000000       0.75000000       0.75000000 </v>
  </varray>
 </structure>
 <calculation>
  <scstep>
   <time name="dav">  559.63  559.17</time>
   <time name="total">  563.03  562.56</time>
   <energy>
    <i name="alphaZ">   7925.72117195 </i>
    <i name="ewald">-142726.55438443 </i>
    <i name="hartreedc"> -68446.41765041 </i>
    <i name="XCdc">   5673.78680672 </i>
    <i name="pawpsdc"> 172361.15642774 </i>
    <i name="pawaedc">-181272.45834873 </i>
    <i name="eentropy">      0.00415558 </i>
    <i name="bandstr">  -4375.57596612 </i>
    <i name="atom"> 224013.29143063 </i>
    <i name="e_fr_energy">  13152.95364294 </i>
    <i name="e_wo_entrp">  13152.94948735 </i>
    <i name="e_0_energy">  13152.95225774 </i>
   </energy>
  </scstep>
  <scstep>
   <time name="dav">  490.31  489.91</time>
   <time name="total">  490.33  489.92</time>
   <energy>
    <i name="e_fr_energy">    645.58561973 </i>
    <i name="e_wo_entrp">    645.59099008 </i>
    <i name="e_0_energy">    645.58740984 </i>
   </energy>
  </scstep>
  <scstep>
   <time name="dav">  504.52  504.10</time>
   <time name="total">  504.54  504.12</time>
   <energy>
    <i name="e_fr_energy">   -357.66385420 </i>
    <i name="e_wo_entrp">   -357.79088002 </i>
    <i name="e_0_energy">   -357.70619614 </i>
   </energy>
  </scstep>
  <scstep>
   <time name="dav">  519.34  518.91</time>
   <time name="total">  519.36  518.93</time>
   <energy>
    <i name="e_fr_energy">   -410.89515378 </i>
    <i name="e_wo_entrp">   -411.03779492 </i>
    <i name="e_0_energy">   -410.94270082 </i>
   </energy>
  </scstep>
  <scstep>
   <time name="dav">  512.82  512.40</time>
   <time name="total">  540.62  540.17</time>
   <energy>
    <i name="e_fr_energy">   -411.72651069 </i>
    <i name="e_wo_entrp">   -411.86931947 </i>
    <i name="e_0_energy">   -411.77411362 </i>
   </energy>
  </scstep>
  <scstep>
   <time name="dav">  504.18  503.76</time>
   <time name="total">  532.87  532.43</time>
   <energy>
    <i name="e_fr_energy">   -397.73165154 </i>
    <i name="e_wo_entrp">   -397.17728141 </i>
    <i name="e_0_energy">   -397.54686150 </i>
   </energy>
  </scstep>
  <scstep>
   <time name="dav">  502.69  502.28</time>
   <time name="total">  531.96  531.52</time>
   <energy>
    <i name="e_fr_energy">   -351.70861629 </i>
    <i name="e_wo_entrp">   -351.54516513 </i>
    <i name="e_0_energy">   -351.65413257 </i>
   </energy>
  </scstep>
  <scstep>
   <time name="dav">  502.72  502.30</time>
   <time name="total">  532.25  531.80</time>
   <energy>
    <i name="e_fr_energy">   -351.99123133 </i>
    <i name="e_wo_entrp">   -351.84396673 </i>
    <i name="e_0_energy">   -351.94214313 </i>
   </energy>
  </scstep>
  <scstep>
   <time name="dav">  509.34  508.92</time>
   <time name="total">  539.06  538.61</time>
   <energy>
    <i name="e_fr_energy">   -351.93306786 </i>
    <i name="e_wo_entrp">   -351.78505206 </i>
    <i name="e_0_energy">   -351.88372926 </i>
   </energy>
  </scstep>
  <scstep>
   <time name="dav">  523.49  523.06</time>
   <time name="total">  553.10  552.64</time>
   <energy>
    <i name="e_fr_energy">   -351.93846142 </i>
    <i name="e_wo_entrp">   -351.79171275 </i>
    <i name="e_0_energy">   -351.88954520 </i>
   </energy>
  </scstep>
  <scstep>
   <time name="dav">  510.38  509.96</time>
   <time name="total">  540.83  540.38</time>
   <energy>
    <i name="e_fr_energy">   -351.94131899 </i>
    <i name="e_wo_entrp">   -351.79523260 </i>
    <i name="e_0_energy">   -351.89262353 </i>
   </energy>
  </scstep>
  <scstep>
   <time name="dav">  521.78  521.35</time>
   <time name="total">  552.21  551.75</time>
   <energy>
    <i name="e_fr_energy">   -351.94149648 </i>
    <i name="e_wo_entrp">   -351.79419166 </i>
    <i name="e_0_energy">   -351.89239487 </i>
   </energy>
  </scstep>
  <scstep>
   <time name="dav">  525.32  524.89</time>
   <time name="total">  555.59  555.13</time>
   <energy>
    <i name="e_fr_energy">   -351.94148425 </i>
    <i name="e_wo_entrp">   -351.79398278 </i>
    <i name="e_0_energy">   -351.89231710 </i>
   </energy>
  </scstep>
  <scstep>
   <time name="dav">  398.10  397.77</time>
   <time name="total">  429.52  429.17</time>
   <energy>
    <i name="e_fr_energy">   -351.94146977 </i>
    <i name="e_wo_entrp">   -351.79400863 </i>
    <i name="e_0_energy">   -351.89231606 </i>
   </energy>
  </scstep>
  <scstep>
   <time name="dav">  396.84  396.51</time>
   <time name="total">  428.40  428.05</time>
   <energy>
    <i name="e_fr_energy">   -351.94146003 </i>
    <i name="e_wo_entrp">   -351.79405625 </i>
    <i name="e_0_energy">   -351.89232544 </i>
   </energy>
  </scstep>
  <scstep>
   <time name="dav">  323.94  323.67</time>
   <time name="total">  327.42  327.15</time>
   <energy>
    <i name="alphaZ">   7925.72117195 </i>
    <i name="ewald">-142726.55438443 </i>
    <i name="hartreedc"> -66219.52492333 </i>
    <i name="XCdc">   5593.19134309 </i>
    <i name="pawpsdc"> 170166.69975844 </i>
    <i name="pawaedc">-179178.31427363 </i>
    <i name="eentropy">     -0.14739888 </i>
    <i name="bandstr"> -19926.30418403 </i>
    <i name="atom"> 224013.29143063 </i>
    <i name="e_fr_energy">   -351.94146018 </i>
    <i name="e_wo_entrp">   -351.79406130 </i>
    <i name="e_0_energy">   -351.89232722 </i>
   </energy>
  </scstep>
  <structure>
   <crystal>
    <varray name="basis" >
     <v>       0.00000000       7.57875000       7.57875000 </v>
     <v>       7.57875000       0.00000000       7.57875000 </v>
     <v>       7.57875000       7.57875000       0.00000000 </v>
    </varray>
    <i name="volume">    870.60817206 </i>
    <varray name="rec_basis" >
     <v>      -0.06597394       0.06597394       0.06597394 </v>
     <v>       0.06597394      -0.06597394       0.06597394 </v>
     <v>       0.06597394       0.06597394      -0.06597394 </v>
    </varray>
   </crystal>
   <varray name="positions" >
    <v>       0.00000000       0.00000000       0.00000000 </v>
    <v>       0.00000000       0.00000000       0.25000000 </v>
    <v>       0.00000000       0.00000000       0.50000000 </v>
    <v>       0.00000000       0.00000000       0.75000000 </v>
    <v>       0.00000000       0.25000000       0.00000000 </v>
    <v>       0.00000000       0.25000000       0.25000000 </v>
    <v>       0.00000000       0.25000000       0.50000000 </v>
    <v>       0.00000000       0.25000000       0.75000000 </v>
    <v>       0.00000000       0.50000000       0.00000000 </v>
    <v>       0.00000000       0.50000000       0.25000000 </v>
    <v>       0.00000000       0.50000000       0.50000000 </v>
    <v>       0.00000000       0.50000000       0.75000000 </v>
    <v>       0.00000000       0.75000000       0.00000000 </v>
    <v>       0.00000000       0.75000000       0.25000000 </v>
    <v>       0.00000000       0.75000000       0.50000000 </v>
    <v>       0.00000000       0.75000000       0.75000000 </v>
    <v>       0.25000000       0.00000000       0.00000000 </v>
    <v>       0.25000000       0.00000000       0.25000000 </v>
    <v>       0.25000000       0.00000000       0.50000000 </v>
    <v>       0.25000000       0.00000000       0.75000000 </v>
    <v>       0.25000000       0.25000000       0.00000000 </v>
    <v>       0.25000000       0.25000000       0.25000000 </v>
    <v>       0.25000000       0.25000000       0.50000000 </v>
    <v>       0.25000000       0.25000000       0.75000000 </v>
    <v>       0.25000000       0.50000000       0.00000000 </v>
    <v>       0.25000000       0.50000000       0.25000000 </v>
    <v>       0.25000000       0.50000000       0.50000000 </v>
    <v>       0.25000000       0.50000000       0.75000000 </v>
    <v>       0.25000000       0.75000000       0.00000000 </v>
    <v>       0.25000000       0.75000000       0.25000000 </v>
    <v>       0.25000000       0.75000000       0.50000000 </v>
    <v>       0.25000000       0.75000000       0.75000000 </v>
    <v>       0.50000000       0.00000000       0.00000000 </v>
    <v>       0.50000000       0.00000000       0.25000000 </v>
    <v>       0.50000000       0.00000000       0.50000000 </v>
    <v>       0.50000000       0.00000000       0.75000000 </v>
    <v>       0.50000000       0.25000000       0.00000000 </v>
    <v>       0.50000000       0.25000000       0.25000000 </v>
    <v>       0.50000000       0.25000000       0.50000000 </v>
    <v>       0.50000000       0.25000000       0.75000000 </v>
    <v>       0.50000000       0.50000000       0.00000000 </v>
    <v>       0.50000000       0.50000000       0.25000000 </v>
    <v>       0.50000000       0.50000000       0.50000000 </v>
    <v>       0.50000000       0.50000000       0.75000000 </v>
    <v>       0.50000000       0.75000000       0.00000000 </v>
    <v>       0.50000000       0.75000000       0.25000000 </v>
    <v>       0.50000000       0.75000000       0.50000000 </v>
    <v>       0.50000000       0.75000000       0.75000000 </v>
    <v>       0.75000000       0.00000000       0.00000000 </v>
    <v>       0.75000000       0.00000000       0.25000000 </v>
    <v>       0.75000000       0.00000000       0.50000000 </v>
    <v>       0.75000000       0.00000000       0.75000000 </v>
    <v>       0.75000000       0.25000000       0.00000000 </v>
    <v>       0.75000000       0.25000000       0.25000000 </v>
    <v>       0.75000000       0.25000000       0.50000000 </v>
    <v>       0.75000000       0.25000000       0.75000000 </v>
    <v>       0.75000000       0.50000000       0.00000000 </v>
    <v>       0.75000000       0.50000000       0.25000000 </v>
    <v>       0.75000000       0.50000000       0.50000000 </v>
    <v>       0.75000000       0.50000000       0.75000000 </v>
    <v>       0.75000000       0.75000000       0.00000000 </v>
    <v>       0.75000000       0.75000000       0.25000000 </v>
    <v>       0.75000000       0.75000000       0.50000000 </v>
    <v>       0.75000000       0.75000000       0.75000000 </v>
   </varray>
  </structure>
  <varray name="forces" >
   <v>       0.00000000       0.00000000      -0.00000000 </v>
   <v>       0.00000000      -0.00000000      -0.00000000 </v>
   <v>       0.00000000       0.00000000       0.00000000 </v>
   <v>       0.00000000      -0.00000000       0.00000000 </v>
   <v>       0.00000000      -0.00000000      -0.00000000 </v>
   <v>       0.00000000       0.00000000       0.00000000 </v>
   <v>       0.00000000       0.00000000      -0.00000000 </v>
   <v>      -0.00000000      -0.00000000       0.00000000 </v>
   <v>       0.00000000       0.00000000      -0.00000000 </v>
   <v>       0.00000000      -0.00000000      -0.00000000 </v>
   <v>      -0.00000000      -0.00000000      -0.00000000 </v>
   <v>       0.00000000       0.00000000       0.00000000 </v>
   <v>       0.00000000       0.00000000      -0.00000000 </v>
   <v>      -0.00000000      -0.00000000       0.00000000 </v>
   <v>       0.00000000       0.00000000      -0.00000000 </v>
   <v>       0.00000000       0.00000000      -0.00000000 </v>
   <v>      -0.00000000       0.00000000      -0.00000000 </v>
   <v>      -0.00000000       0.00000000       0.00000000 </v>
   <v>      -0.00000000       0.00000000       0.00000000 </v>
   <v>       0.00000000       0.00000000       0.00000000 </v>
   <v>       0.00000000       0.00000000      -0.00000000 </v>
   <v>      -0.00000000       0.00000000       0.00000000 </v>
   <v>      -0.00000000       0.00000000      -0.00000000 </v>
   <v>      -0.00000000      -0.00000000       0.00000000 </v>
   <v>       0.00000000       0.00000000      -0.00000000 </v>
   <v>       0.00000000       0.00000000       0.00000000 </v>
   <v>      -0.00000000       0.00000000      -0.00000000 </v>
   <v>      -0.00000000      -0.00000000       0.00000000 </v>
   <v>      -0.00000000       0.00000000      -0.00000000 </v>
   <v>       0.00000000      -0.00000000       0.00000000 </v>
   <v>       0.00000000       0.00000000      -0.00000000 </v>
   <v>       0.00000000       0.00000000      -0.00000000 </v>
   <v>      -0.00000000      -0.00000000       0.00000000 </v>
   <v>      -0.00000000       0.00000000       0.00000000 </v>
   <v>       0.00000000       0.00000000       0.00000000 </v>
   <v>       0.00000000      -0.00000000       0.00000000 </v>
   <v>       0.00000000       0.00000000      -0.00000000 </v>
   <v>       0.00000000       0.00000000       0.00000000 </v>
   <v>      -0.00000000       0.00000000       0.00000000 </v>
   <v>      -0.00000000      -0.00000000       0.00000000 </v>
   <v>       0.00000000       0.00000000      -0.00000000 </v>
   <v>       0.00000000      -0.00000000       0.00000000 </v>
   <v>      -0.00000000      -0.00000000      -0.00000000 </v>
   <v>      -0.00000000      -0.00000000      -0.00000000 </v>
   <v>      -0.00000000      -0.00000000      -0.00000000 </v>
   <v>       0.00000000      -0.00000000       0.00000000 </v>
   <v>       0.00000000      -0.00000000      -0.00000000 </v>
   <v>       0.00000000      -0.00000000      -0.00000000 </v>
   <v>      -0.00000000      -0.00000000      -0.00000000 </v>
   <v>      -0.00000000      -0.00000000       0.00000000 </v>
   <v>      -0.00000000       0.00000000       0.00000000 </v>
   <v>      -0.00000000       0.00000000       0.00000000 </v>
   <v>       0.00000000      -0.00000000      -0.00000000 </v>
   <v>       0.00000000       0.00000000       0.00000000 </v>
   <v>      -0.00000000       0.00000000       0.00000000 </v>
   <v>      -0.00000000      -0.00000000      -0.00000000 </v>
   <v>       0.00000000      -0.00000000      -0.00000000 </v>
   <v>       0.00000000      -0.00000000       0.00000000 </v>
   <v>      -0.00000000      -0.00000000      -0.00000000 </v>
   <v>      -0.00000000      -0.00000000       0.00000000 </v>
   <v>      -0.00000000      -0.00000000      -0.00000000 </v>
   <v>      -0.00000000      -0.00000000       0.00000000 </v>
   <v>       0.00000000       0.00000000      -0.00000000 </v>
   <v>      -0.00000000       0.00000000      -0.00000000 </v>
  </varray>
  <varray name="stress" >
   <v>    -373.86154157      -0.00000000      -0.00000000 </v>
   <v>       0.00000000    -373.86154157      -0.00000000 </v>
   <v>       0.00000000       0.00000000    -373.86154157 </v>
  </varray>
  <energy>
   <i name="e_fr_energy">   -351.94146018 </i>
   <i name="e_wo_entrp">   -351.89232722 </i>
   <i name="e_0_energy">     -0.14739888 </i>
  </energy>
  <kpoints>
   <generation param="Gamma">
    <v type="int" name="divisions">       3        3        3 </v>
    <v name="usershift">      0.00000000       0.00000000       0.00000000 </v>
    <v name="genvec1">      0.33333333       0.00000000       0.00000000 </v>
    <v name="genvec2">      0.00000000       0.33333333       0.00000000 </v>
    <v name="genvec3">      0.00000000       0.00000000       0.33333333 </v>
    <v name="shift">      0.00000000       0.00000000       0.00000000 </v>
   </generation>
   <varray name="kpointlist" >
    <v>       0.00000000       0.00000000       0.00000000 </v>
    <v>       0.33333333       0.00000000       0.00000000 </v>
    <v>       0.33333333       0.33333333       0.00000000 </v>
    <v>      -0.33333333       0.33333333       0.00000000 </v>
    <v>       0.00000000       0.33333333       0.33333333 </v>
    <v>      -0.33333333       0.33333333       0.33333333 </v>
   </varray>
   <varray name="weights" >
    <v>       0.03703704 </v>
    <v>       0.29629630 </v>
    <v>       0.14814815 </v>
    <v>       0.29629630 </v>
    <v>       0.07407407 </v>
    <v>       0.14814815 </v>
   </varray>
  </kpoints>
  <time name="totalsc"> 8903.84 8897.97</time>
 </calculation>
 <calculation>
  <scstep>
   <time name="dav">  942.40  941.62</time>
   <time name="total">  985.06  984.24</time>
   <energy>
    <i name="alphaZ">   7925.72117195 </i>
    <i name="ewald">-142726.05159064 </i>
    <i name="hartreedc"> -66220.03862334 </i>
    <i name="XCdc">   5593.19439043 </i>
    <i name="pawpsdc"> 170166.54036859 </i>
    <i name="pawaedc">-179178.16063976 </i>
    <i name="eentropy">     -0.14733197 </i>
    <i name="bandstr"> -19925.95491181 </i>
    <i name="atom"> 224013.29143063 </i>
    <i name="e_fr_energy">   -351.60573592 </i>
    <i name="e_wo_entrp">   -351.45840395 </i>
    <i name="e_0_energy">   -351.55662526 </i>
   </energy>
  </scstep>
  <scstep>
   <time name="dav">  769.50  768.87</time>
   <time name="total">  811.99  811.32</time>
   <energy>
    <i name="e_fr_energy">   -351.96880712 </i>
    <i name="e_wo_entrp">   -351.82273779 </i>
    <i name="e_0_energy">   -351.92011734 </i>
   </energy>
  </scstep>
  <scstep>
   <time name="dav">  896.70  895.96</time>
   <time name="total">  939.43  938.65</time>
   <energy>
    <i name="e_fr_energy">   -351.94435746 </i>
    <i name="e_wo_entrp">   -351.79684417 </i>
    <i name="e_0_energy">   -351.89518636 </i>
   </energy>
  </scstep>
  <scstep>
   <time name="dav">  887.96  887.22</time>
   <time name="total">  930.59  929.81</time>
   <energy>
    <i name="e_fr_energy">   -351.95717199 </i>
    <i name="e_wo_entrp">   -351.81028298 </i>
    <i name="e_0_energy">   -351.90820899 </i>
   </energy>
  </scstep>
  <scstep>
   <time name="dav">  796.22  795.56</time>
   <time name="total">  838.82  838.13</time>
   <energy>
    <i name="e_fr_energy">   -351.94108693 </i>
    <i name="e_wo_entrp">   -351.79366567 </i>
    <i name="e_0_energy">   -351.89194651 </i>
   </energy>
  </scstep>
  <scstep>
   <time name="dav">  902.77  902.03</time>
   <time name="total">  943.98  943.19</time>
   <energy>
    <i name="e_fr_energy">   -351.94074163 </i>
    <i name="e_wo_entrp">   -351.79332554 </i>
    <i name="e_0_energy">   -351.89160294 </i>
   </energy>
  </scstep>
  <scstep>
   <time name="dav">  812.83  812.16</time>
   <time name="total">  855.35  854.64</time>
   <energy>
    <i name="e_fr_energy">   -351.94069227 </i>
    <i name="e_wo_entrp">   -351.79327604 </i>
    <i name="e_0_energy">   -351.89155353 </i>
   </energy>
  </scstep>
  <scstep>
   <time name="dav">  813.60  812.93</time>
   <time name="total">  856.26  855.55</time>
   <energy>
    <i name="e_fr_energy">   -351.94049029 </i>
    <i name="e_wo_entrp">   -351.79308221 </i>
    <i name="e_0_energy">   -351.89135427 </i>
   </energy>
  </scstep>
  <scstep>
   <time name="dav">  825.83  825.15</time>
   <time name="total">  868.43  867.71</time>
   <energy>
    <i name="e_fr_energy">   -351.94056926 </i>
    <i name="e_wo_entrp">   -351.79316536 </i>
    <i name="e_0_energy">   -351.89143463 </i>
   </energy>
  </scstep>
  <scstep>
   <time name="dav">  867.87  867.15</time>
   <time name="total">  910.46  909.71</time>
   <energy>
    <i name="e_fr_energy">   -351.94027350 </i>
    <i name="e_wo_entrp">   -351.79290365 </i>
    <i name="e_0_energy">   -351.89115021 </i>
   </energy>
  </scstep>
  <scstep>
   <time name="dav">  956.08  955.29</time>
   <time name="total">  998.75  997.92</time>
   <energy>
    <i name="e_fr_energy">   -351.94016742 </i>
    <i name="e_wo_entrp">   -351.79278936 </i>
    <i name="e_0_energy">   -351.89104140 </i>
   </energy>
  </scstep>
  <scstep>
   <time name="dav">  982.91  982.09</time>
   <time name="total"> 1027.53 1026.68</time>
   <energy>
    <i name="e_fr_energy">   -351.94019581 </i>
    <i name="e_wo_entrp">   -351.79281011 </i>
    <i name="e_0_energy">   -351.89106724 </i>
   </energy>
  </scstep>
  <scstep>
   <time name="dav">  856.47  855.76</time>
   <time name="total">  898.70  897.96</time>
   <energy>
    <i name="e_fr_energy">   -351.94016030 </i>
    <i name="e_wo_entrp">   -351.79276487 </i>
    <i name="e_0_energy">   -351.89102849 </i>
   </energy>
  </scstep>
  <scstep>
   <time name="dav">  900.17  899.42</time>
   <time name="total">  941.58  940.79</time>
   <energy>
    <i name="e_fr_energy">   -351.94017141 </i>
    <i name="e_wo_entrp">   -351.79278285 </i>
    <i name="e_0_energy">   -351.89104189 </i>
   </energy>
  </scstep>
  <scstep>
   <time name="dav">  807.44 1614.40</time>
   <time name="total">  851.46 1658.39</time>
   <energy>
    <i name="e_fr_energy">   -351.94016104 </i>
    <i name="e_wo_entrp">   -351.79277246 </i>
    <i name="e_0_energy">   -351.89103151 </i>
   </energy>
  </scstep>
  <scstep>
   <time name="dav">  524.82  524.39</time>
   <time name="total">  528.28  527.85</time>
   <energy>
    <i name="alphaZ">   7925.72117195 </i>
    <i name="ewald">-142726.05159064 </i>
    <i name="hartreedc"> -66220.00781598 </i>
    <i name="XCdc">   5593.19240562 </i>
    <i name="pawpsdc"> 170166.48995236 </i>
    <i name="pawaedc">-179178.11473983 </i>
    <i name="eentropy">     -0.14738746 </i>
    <i name="bandstr"> -19926.31358763 </i>
    <i name="atom"> 224013.29143063 </i>
    <i name="e_fr_energy">   -351.94016098 </i>
    <i name="e_wo_entrp">   -351.79277353 </i>
    <i name="e_0_energy">   -351.89103183 </i>
   </energy>
  </scstep>
  <structure>
   <crystal>
    <varray name="basis" >
     <v>       0.00000000       7.57875000       7.57875000 </v>
     <v>       7.57875000       0.00000000       7.57875000 </v>
     <v>       7.57875000       7.57875000       0.00000000 </v>
    </varray>
    <i name="volume">    870.60817206 </i>
    <varray name="rec_basis" >
     <v>      -0.06597394       0.06597394       0.06597394 </v>
     <v>       0.06597394      -0.06597394       0.06597394 </v>
     <v>       0.06597394       0.06597394      -0.06597394 </v>
    </varray>
   </crystal>
   <varray name="positions" >
    <v>      -0.00197922       0.00197922       0.00197922 </v>
    <v>       0.00000000       0.00000000       0.25000000 </v>
    <v>       0.00000000       0.00000000       0.50000000 </v>
    <v>       0.00000000       0.00000000       0.75000000 </v>
    <v>       0.00000000       0.25000000       0.00000000 </v>
    <v>       0.00000000       0.25000000       0.25000000 </v>
    <v>       0.00000000       0.25000000       0.50000000 </v>
    <v>       0.00000000       0.25000000       0.75000000 </v>
    <v>       0.00000000       0.50000000       0.00000000 </v>
    <v>       0.00000000       0.50000000       0.25000000 </v>
    <v>       0.00000000       0.50000000       0.50000000 </v>
    <v>       0.00000000       0.50000000       0.75000000 </v>
    <v>       0.00000000       0.75000000       0.00000000 </v>
    <v>       0.00000000       0.75000000       0.25000000 </v>
    <v>       0.00000000       0.75000000       0.50000000 </v>
    <v>       0.00000000       0.75000000       0.75000000 </v>
    <v>       0.25000000       0.00000000       0.00000000 </v>
    <v>       0.25000000       0.00000000       0.25000000 </v>
    <v>       0.25000000       0.00000000       0.50000000 </v>
    <v>       0.25000000       0.00000000       0.75000000 </v>
    <v>       0.25000000       0.25000000       0.00000000 </v>
    <v>       0.25000000       0.25000000       0.25000000 </v>
    <v>       0.25000000       0.25000000       0.50000000 </v>
    <v>       0.25000000       0.25000000       0.75000000 </v>
    <v>       0.25000000       0.50000000       0.00000000 </v>
    <v>       0.25000000       0.50000000       0.25000000 </v>
    <v>       0.25000000       0.50000000       0.50000000 </v>
    <v>       0.25000000       0.50000000       0.75000000 </v>
    <v>       0.25000000       0.75000000       0.00000000 </v>
    <v>       0.25000000       0.75000000       0.25000000 </v>
    <v>       0.25000000       0.75000000       0.50000000 </v>
    <v>       0.25000000       0.75000000       0.75000000 </v>
    <v>       0.50000000       0.00000000       0.00000000 </v>
    <v>       0.50000000       0.00000000       0.25000000 </v>
    <v>       0.50000000       0.00000000       0.50000000 </v>
    <v>       0.50000000       0.00000000       0.75000000 </v>
    <v>       0.50000000       0.25000000       0.00000000 </v>
    <v>       0.50000000       0.25000000       0.25000000 </v>
    <v>       0.50000000       0.25000000       0.50000000 </v>
    <v>       0.50000000       0.25000000       0.75000000 </v>
    <v>       0.50000000       0.50000000       0.00000000 </v>
    <v>       0.50000000       0.50000000       0.25000000 </v>
    <v>       0.50000000       0.50000000       0.50000000 </v>
    <v>       0.50000000       0.50000000       0.75000000 </v>
    <v>       0.50000000       0.75000000       0.00000000 </v>
    <v>       0.50000000       0.75000000       0.25000000 </v>
    <v>       0.50000000       0.75000000       0.50000000 </v>
    <v>       0.50000000       0.75000000       0.75000000 </v>
    <v>       0.75000000       0.00000000       0.00000000 </v>
    <v>       0.75000000       0.00000000       0.25000000 </v>
    <v>       0.75000000       0.00000000       0.50000000 </v>
    <v>       0.75000000       0.00000000       0.75000000 </v>
    <v>       0.75000000       0.25000000       0.00000000 </v>
    <v>       0.75000000       0.25000000       0.25000000 </v>
    <v>       0.75000000       0.25000000       0.50000000 </v>
    <v>       0.75000000       0.25000000       0.75000000 </v>
    <v>       0.75000000       0.50000000       0.00000000 </v>
    <v>       0.75000000       0.50000000       0.25000000 </v>
    <v>       0.75000000       0.50000000       0.50000000 </v>
    <v>       0.75000000       0.50000000       0.75000000 </v>
    <v>       0.75000000       0.75000000       0.00000000 </v>
    <v>       0.75000000       0.75000000       0.25000000 </v>
    <v>       0.75000000       0.75000000       0.50000000 </v>
    <v>       0.75000000       0.75000000       0.75000000 </v>
   </varray>
  </structure>
  <varray name="forces" >
   <v>      -0.09134339       0.00000000       0.00000000 </v>
   <v>       0.00903412       0.00862234       0.00000000 </v>
   <v>       0.00030586       0.00027629       0.00000000 </v>
   <v>       0.00749085       0.00680280       0.00000000 </v>
   <v>       0.00903412       0.00000000       0.00862234 </v>
   <v>       0.00163519       0.00101477       0.00101477 </v>
   <v>       0.00039997       0.00092756      -0.00037432 </v>
   <v>       0.00178919       0.00002988      -0.00002988 </v>
   <v>       0.00030586       0.00000000       0.00027629 </v>
   <v>       0.00039997      -0.00037432       0.00092756 </v>
   <v>      -0.00018105       0.00000000       0.00000000 </v>
   <v>       0.00044240      -0.00042362       0.00102149 </v>
   <v>       0.00749085       0.00000000       0.00680280 </v>
   <v>       0.00178919      -0.00002988       0.00002988 </v>
   <v>       0.00044240       0.00102149      -0.00042362 </v>
   <v>       0.00150782       0.00092289       0.00092289 </v>
   <v>       0.00178919      -0.00002988      -0.00002988 </v>
   <v>       0.00044240       0.00102149       0.00042362 </v>
   <v>       0.00150782       0.00092289      -0.00092289 </v>
   <v>       0.00749085       0.00000000      -0.00680280 </v>
   <v>       0.00044240       0.00042362       0.00102149 </v>
   <v>       0.00035782       0.00000000      -0.00000000 </v>
   <v>       0.00039997       0.00037432      -0.00092756 </v>
   <v>      -0.00122622       0.00000000       0.00006536 </v>
   <v>       0.00150782      -0.00092289       0.00092289 </v>
   <v>       0.00039997      -0.00092756       0.00037432 </v>
   <v>      -0.00038614      -0.00001425      -0.00001425 </v>
   <v>      -0.00012400       0.00000000      -0.00015659 </v>
   <v>       0.00749085      -0.00680280       0.00000000 </v>
   <v>      -0.00122622       0.00006536       0.00000000 </v>
   <v>      -0.00012400      -0.00015659       0.00000000 </v>
   <v>       0.00268728       0.00000000       0.00000000 </v>
   <v>      -0.00018105       0.00000000      -0.00000000 </v>
   <v>       0.00044240      -0.00042362      -0.00102149 </v>
   <v>       0.00030586       0.00000000      -0.00027629 </v>
   <v>       0.00039997      -0.00037432      -0.00092756 </v>
   <v>       0.00044240      -0.00102149      -0.00042362 </v>
   <v>       0.00163519      -0.00101477      -0.00101477 </v>
   <v>      -0.00014822       0.00000000       0.00012493 </v>
   <v>      -0.00038614       0.00001425      -0.00001425 </v>
   <v>       0.00030586      -0.00027629       0.00000000 </v>
   <v>      -0.00014822       0.00012493       0.00000000 </v>
   <v>      -0.00058781       0.00000000       0.00000000 </v>
   <v>      -0.00012400       0.00015659       0.00000000 </v>
   <v>       0.00039997      -0.00092756      -0.00037432 </v>
   <v>      -0.00038614      -0.00001425       0.00001425 </v>
   <v>      -0.00012400       0.00000000       0.00015659 </v>
   <v>       0.00150782      -0.00092289      -0.00092289 </v>
   <v>       0.00178919       0.00002988       0.00002988 </v>
   <v>       0.00903412       0.00000000      -0.00862234 </v>
   <v>       0.00163519       0.00101477      -0.00101477 </v>
   <v>       0.00039997       0.00092756       0.00037432 </v>
   <v>       0.00903412      -0.00862234       0.00000000 </v>
   <v>       0.00263757       0.00000000       0.00000000 </v>
   <v>      -0.00014822      -0.00012493      -0.00000000 </v>
   <v>      -0.00122622      -0.00006536       0.00000000 </v>
   <v>       0.00163519      -0.00101477       0.00101477 </v>
   <v>      -0.00014822       0.00000000      -0.00012493 </v>
   <v>      -0.00038614       0.00001425       0.00001425 </v>
   <v>       0.00044240      -0.00102149       0.00042362 </v>
   <v>       0.00039997       0.00037432       0.00092756 </v>
   <v>      -0.00122622       0.00000000      -0.00006536 </v>
   <v>       0.00044240       0.00042362      -0.00102149 </v>
   <v>       0.00035782       0.00000000       0.00000000 </v>
  </varray>
  <varray name="stress" >
   <v>    -373.86499783       0.00000000      -0.00000000 </v>
   <v>      -0.00000000    -373.87175450       0.00000000 </v>
   <v>       0.00000000       0.00000000    -373.87175450 </v>
  </varray>
  <energy>
   <i name="e_fr_energy">   -351.94016098 </i>
   <i name="e_wo_entrp">   -351.89103183 </i>
   <i name="e_0_energy">     -0.14738746 </i>
  </energy>
  <kpoints>
   <generation param="Gamma">
    <v type="int" name="divisions">       3        3        3 </v>
    <v name="usershift">      0.00000000       0.00000000       0.00000000 </v>
    <v name="genvec1">      0.33333333       0.00000000       0.00000000 </v>
    <v name="genvec2">      0.00000000       0.33333333       0.00000000 </v>
    <v name="genvec3">      0.00000000       0.00000000       0.33333333 </v>
    <v name="shift">      0.00000000       0.00000000       0.00000000 </v>
   </generation>
   <varray name="kpointlist" >
    <v>       0.00000000       0.00000000       0.00000000 </v>
    <v>       0.33333333       0.00000000       0.00000000 </v>
    <v>       0.33333333       0.33333333       0.00000000 </v>
    <v>      -0.33333333       0.33333333       0.00000000 </v>
    <v>       0.00000000       0.33333333       0.33333333 </v>
    <v>      -0.33333333       0.33333333       0.33333333 </v>
   </varray>
   <varray name="weights" >
    <v>       0.03703704 </v>
    <v>       0.29629630 </v>
    <v>       0.14814815 </v>
    <v>       0.29629630 </v>
    <v>       0.07407407 </v>
    <v>       0.14814815 </v>
   </varray>
  </kpoints>
  <time name="totalsc">15255.1716050.18</time>
 </calculation>
 <calculation>
  <scstep>
   <time name="dav">  963.82  963.02</time>
   <time name="total"> 1006.74 1005.91</time>
   <energy>
    <i name="alphaZ">   7925.72117195 </i>
    <i name="ewald">-142726.42868060 </i>
    <i name="hartreedc"> -66219.64021757 </i>
    <i name="XCdc">   5593.19152994 </i>
    <i name="pawpsdc"> 170166.46526855 </i>
    <i name="pawaedc">-179178.08824223 </i>
    <i name="eentropy">     -0.14737799 </i>
    <i name="bandstr"> -19926.16468036 </i>
    <i name="atom"> 224013.29143063 </i>
    <i name="e_fr_energy">   -351.79979768 </i>
    <i name="e_wo_entrp">   -351.65241968 </i>
    <i name="e_0_energy">   -351.75067168 </i>
   </energy>
  </scstep>
  <scstep>
   <time name="dav">  772.08  771.44</time>
   <time name="total">  817.49  816.81</time>
   <energy>
    <i name="e_fr_energy">   -351.94351157 </i>
    <i name="e_wo_entrp">   -351.79625319 </i>
    <i name="e_0_energy">   -351.89442544 </i>
   </energy>
  </scstep>
  <scstep>
   <time name="dav">  906.88  906.13</time>
   <time name="total">  952.20  951.41</time>
   <energy>
    <i name="e_fr_energy">   -351.94121290 </i>
    <i name="e_wo_entrp">   -351.79374984 </i>
    <i name="e_0_energy">   -351.89205854 </i>
   </energy>
  </scstep>
  <scstep>
   <time name="dav">  904.74  903.99</time>
   <time name="total">  950.41  949.63</time>
   <energy>
    <i name="e_fr_energy">   -351.94333790 </i>
    <i name="e_wo_entrp">   -351.79596883 </i>
    <i name="e_0_energy">   -351.89421488 </i>
   </energy>
  </scstep>
  <scstep>
   <time name="dav">  811.34  810.67</time>
   <time name="total">  856.66  855.95</time>
   <energy>
    <i name="e_fr_energy">   -351.94125517 </i>
    <i name="e_wo_entrp">   -351.79385876 </i>
    <i name="e_0_energy">   -351.89212303 </i>
   </energy>
  </scstep>
  <scstep>
   <time name="dav">  920.28  919.51</time>
   <time name="total">  965.73  964.93</time>
   <energy>
    <i name="e_fr_energy">   -351.94120405 </i>
    <i name="e_wo_entrp">   -351.79380940 </i>
    <i name="e_0_energy">   -351.89207250 </i>
   </energy>
  </scstep>
  <scstep>
   <time name="dav">  851.15  850.45</time>
   <time name="total">  896.58  895.83</time>
   <energy>
    <i name="e_fr_energy">   -351.94120767 </i>
    <i name="e_wo_entrp">   -351.79380776 </i>
    <i name="e_0_energy">   -351.89207437 </i>
   </energy>
  </scstep>
  <scstep>
   <time name="dav">  828.67  827.98</time>
   <time name="total">  876.83  876.10</time>
   <energy>
    <i name="e_fr_energy">   -351.94117583 </i>
    <i name="e_wo_entrp">   -351.79377300 </i>
    <i name="e_0_energy">   -351.89204155 </i>
   </energy>
  </scstep>
  <scstep>
   <time name="dav">  835.39  834.70</time>
   <time name="total">  880.66  879.93</time>
   <energy>
    <i name="e_fr_energy">   -351.94120882 </i>
    <i name="e_wo_entrp">   -351.79380885 </i>
    <i name="e_0_energy">   -351.89207550 </i>
   </energy>
  </scstep>
  <scstep>
   <time name="dav">  882.66  881.93</time>
   <time name="total">  927.85  927.08</time>
   <energy>
    <i name="e_fr_energy">   -351.94116438 </i>
    <i name="e_wo_entrp">   -351.79377286 </i>
    <i name="e_0_energy">   -351.89203388 </i>
   </energy>
  </scstep>
  <scstep>
   <time name="dav">  916.30  915.54</time>
   <time name="total">  961.76  960.96</time>
   <energy>
    <i name="e_fr_energy">   -351.94115114 </i>
    <i name="e_wo_entrp">   -351.79376142 </i>
    <i name="e_0_energy">   -351.89202124 </i>
   </energy>
  </scstep>
  <scstep>
   <time name="dav">  838.88  838.18</time>
   <time name="total">  882.55  881.82</time>
   <energy>
    <i name="e_fr_energy">   -351.94115403 </i>
    <i name="e_wo_entrp">   -351.79376183 </i>
    <i name="e_0_energy">   -351.89202330 </i>
   </energy>
  </scstep>
  <scstep>
   <time name="dav">  725.79  725.18</time>
   <time name="total">  769.33  768.69</time>
   <energy>
    <i name="e_fr_energy">   -351.94115100 </i>
    <i name="e_wo_entrp">   -351.79375622 </i>
    <i name="e_0_energy">   -351.89201940 </i>
   </energy>
  </scstep>
  <scstep>
   <time name="dav">  480.86  480.47</time>
   <time name="total">  484.19  483.78</time>
   <energy>
    <i name="alphaZ">   7925.72117195 </i>
    <i name="ewald">-142726.42868060 </i>
    <i name="hartreedc"> -66219.62705563 </i>
    <i name="XCdc">   5593.19095026 </i>
    <i name="pawpsdc"> 170166.36918837 </i>
    <i name="pawaedc">-179177.99069286 </i>
    <i name="eentropy">     -0.14739480 </i>
    <i name="bandstr"> -19926.32006875 </i>
    <i name="atom"> 224013.29143063 </i>
    <i name="e_fr_energy">   -351.94115143 </i>
    <i name="e_wo_entrp">   -351.79375663 </i>
    <i name="e_0_energy">   -351.89201983 </i>
   </energy>
  </scstep>
  <structure>
   <crystal>
    <varray name="basis" >
     <v>       0.00000000       7.57875000       7.57875000 </v>
     <v>       7.57875000       0.00000000       7.57875000 </v>
     <v>       7.57875000       7.57875000       0.00000000 </v>
    </varray>
    <i name="volume">    870.60817206 </i>
    <varray name="rec_basis" >
     <v>      -0.06597394       0.06597394       0.06597394 </v>
     <v>       0.06597394      -0.06597394       0.06597394 </v>
     <v>       0.06597394       0.06597394      -0.06597394 </v>
    </varray>
   </crystal>
   <varray name="positions" >
    <v>      -0.00098961       0.00098961       0.00098961 </v>
    <v>       0.00000000       0.00000000       0.25000000 </v>
    <v>       0.00000000       0.00000000       0.50000000 </v>
    <v>       0.00000000       0.00000000       0.75000000 </v>
    <v>       0.00000000       0.25000000       0.00000000 </v>
    <v>       0.00000000       0.25000000       0.25000000 </v>
    <v>       0.00000000       0.25000000       0.50000000 </v>
    <v>       0.00000000       0.25000000       0.75000000 </v>
    <v>       0.00000000       0.50000000       0.00000000 </v>
    <v>       0.00000000       0.50000000       0.25000000 </v>
    <v>       0.00000000       0.50000000       0.50000000 </v>
    <v>       0.00000000       0.50000000       0.75000000 </v>
    <v>       0.00000000       0.75000000       0.00000000 </v>
    <v>       0.00000000       0.75000000       0.25000000 </v>
    <v>       0.00000000       0.75000000       0.50000000 </v>
    <v>       0.00000000       0.75000000       0.75000000 </v>
    <v>       0.25000000       0.00000000       0.00000000 </v>
    <v>       0.25000000       0.00000000       0.25000000 </v>
    <v>       0.25000000       0.00000000       0.50000000 </v>
    <v>       0.25000000       0.00000000       0.75000000 </v>
    <v>       0.25000000       0.25000000       0.00000000 </v>
    <v>       0.25000000       0.25000000       0.25000000 </v>
    <v>       0.25000000       0.25000000       0.50000000 </v>
    <v>       0.25000000       0.25000000       0.75000000 </v>
    <v>       0.25000000       0.50000000       0.00000000 </v>
    <v>       0.25000000       0.50000000       0.25000000 </v>
    <v>       0.25000000       0.50000000       0.50000000 </v>
    <v>       0.25000000       0.50000000       0.75000000 </v>
    <v>       0.25000000       0.75000000       0.00000000 </v>
    <v>       0.25000000       0.75000000       0.25000000 </v>
    <v>       0.25000000       0.75000000       0.50000000 </v>
    <v>       0.25000000       0.75000000       0.75000000 </v>
    <v>       0.50000000       0.00000000       0.00000000 </v>
    <v>       0.50000000       0.00000000       0.25000000 </v>
    <v>       0.50000000       0.00000000       0.50000000 </v>
    <v>       0.50000000       0.00000000       0.75000000 </v>
    <v>       0.50000000       0.25000000       0.00000000 </v>
    <v>       0.50000000       0.25000000       0.25000000 </v>
    <v>       0.50000000       0.25000000       0.50000000 </v>
    <v>       0.50000000       0.25000000       0.75000000 </v>
    <v>       0.50000000       0.50000000       0.00000000 </v>
    <v>       0.50000000       0.50000000       0.25000000 </v>
    <v>       0.50000000       0.50000000       0.50000000 </v>
    <v>       0.50000000       0.50000000       0.75000000 </v>
    <v>       0.50000000       0.75000000       0.00000000 </v>
    <v>       0.50000000       0.75000000       0.25000000 </v>
    <v>       0.50000000       0.75000000       0.50000000 </v>
    <v>       0.50000000       0.75000000       0.75000000 </v>
    <v>       0.75000000       0.00000000       0.00000000 </v>
    <v>       0.75000000       0.00000000       0.25000000 </v>
    <v>       0.75000000       0.00000000       0.50000000 </v>
    <v>       0.75000000       0.00000000       0.75000000 </v>
    <v>       0.75000000       0.25000000       0.00000000 </v>
    <v>       0.75000000       0.25000000       0.25000000 </v>
    <v>       0.75000000       0.25000000       0.50000000 </v>
    <v>       0.75000000       0.25000000       0.75000000 </v>
    <v>       0.75000000       0.50000000       0.00000000 </v>
    <v>       0.75000000       0.50000000       0.25000000 </v>
    <v>       0.75000000       0.50000000       0.50000000 </v>
    <v>       0.75000000       0.50000000       0.75000000 </v>
    <v>       0.75000000       0.75000000       0.00000000 </v>
    <v>       0.75000000       0.75000000       0.25000000 </v>
    <v>       0.75000000       0.75000000       0.50000000 </v>
    <v>       0.75000000       0.75000000       0.75000000 </v>
   </varray>
  </structure>
  <varray name="forces" >
   <v>      -0.04117150       0.00000000       0.00000000 </v>
   <v>       0.00419765       0.00404951      -0.00000000 </v>
   <v>       0.00002434       0.00021897       0.00000000 </v>
   <v>       0.00379776       0.00357730       0.00000000 </v>
   <v>       0.00419765       0.00000000       0.00404951 </v>
   <v>       0.00070764       0.00054441       0.00054441 </v>
   <v>       0.00013469       0.00049111      -0.00022612 </v>
   <v>       0.00100632       0.00000564      -0.00000564 </v>
   <v>       0.00002434       0.00000000       0.00021897 </v>
   <v>       0.00013469      -0.00022612       0.00049111 </v>
   <v>      -0.00008141       0.00000000       0.00000000 </v>
   <v>       0.00014054      -0.00023654       0.00057082 </v>
   <v>       0.00379776       0.00000000       0.00357730 </v>
   <v>       0.00100632      -0.00000564       0.00000564 </v>
   <v>       0.00014054       0.00057082      -0.00023654 </v>
   <v>       0.00061959       0.00052192       0.00052192 </v>
   <v>       0.00100632      -0.00000564      -0.00000564 </v>
   <v>       0.00014054       0.00057082       0.00023654 </v>
   <v>       0.00061959       0.00052192      -0.00052192 </v>
   <v>       0.00379776       0.00000000      -0.00357730 </v>
   <v>       0.00014054       0.00023654       0.00057082 </v>
   <v>      -0.00002795       0.00000000       0.00000000 </v>
   <v>       0.00013469       0.00022612      -0.00049111 </v>
   <v>      -0.00061452       0.00000000       0.00006620 </v>
   <v>       0.00061959      -0.00052192       0.00052192 </v>
   <v>       0.00013469      -0.00049111       0.00022612 </v>
   <v>      -0.00018687      -0.00000624      -0.00000624 </v>
   <v>      -0.00011297       0.00000000      -0.00008710 </v>
   <v>       0.00379776      -0.00357730       0.00000000 </v>
   <v>      -0.00061452       0.00006620       0.00000000 </v>
   <v>      -0.00011297      -0.00008710       0.00000000 </v>
   <v>       0.00109003       0.00000000       0.00000000 </v>
   <v>      -0.00008141       0.00000000      -0.00000000 </v>
   <v>       0.00014054      -0.00023654      -0.00057082 </v>
   <v>       0.00002434       0.00000000      -0.00021897 </v>
   <v>       0.00013469      -0.00022612      -0.00049111 </v>
   <v>       0.00014054      -0.00057082      -0.00023654 </v>
   <v>       0.00070764      -0.00054441      -0.00054441 </v>
   <v>      -0.00012258       0.00000000       0.00006946 </v>
   <v>      -0.00018687       0.00000624      -0.00000624 </v>
   <v>       0.00002434      -0.00021897       0.00000000 </v>
   <v>      -0.00012258       0.00006946       0.00000000 </v>
   <v>      -0.00034645       0.00000000       0.00000000 </v>
   <v>      -0.00011297       0.00008710       0.00000000 </v>
   <v>       0.00013469      -0.00049111      -0.00022612 </v>
   <v>      -0.00018687      -0.00000624       0.00000624 </v>
   <v>      -0.00011297       0.00000000       0.00008710 </v>
   <v>       0.00061959      -0.00052192      -0.00052192 </v>
   <v>       0.00100632       0.00000564       0.00000564 </v>
   <v>       0.00419765       0.00000000      -0.00404951 </v>
   <v>       0.00070764       0.00054441      -0.00054441 </v>
   <v>       0.00013469       0.00049111       0.00022612 </v>
   <v>       0.00419765      -0.00404951       0.00000000 </v>
   <v>       0.00117929       0.00000000       0.00000000 </v>
   <v>      -0.00012258      -0.00006946       0.00000000 </v>
   <v>      -0.00061452      -0.00006620       0.00000000 </v>
   <v>       0.00070764      -0.00054441       0.00054441 </v>
   <v>      -0.00012258       0.00000000      -0.00006946 </v>
   <v>      -0.00018687       0.00000624       0.00000624 </v>
   <v>       0.00014054      -0.00057082       0.00023654 </v>
   <v>       0.00013469       0.00022612       0.00049111 </v>
   <v>      -0.00061452       0.00000000      -0.00006620 </v>
   <v>       0.00014054       0.00023654      -0.00057082 </v>
   <v>      -0.00002795       0.00000000       0.00000000 </v>
  </varray>
  <varray name="stress" >
   <v>    -373.82039217       0.00000000       0.00000000 </v>
   <v>       0.00000000    -373.82015450       0.00000000 </v>
   <v>       0.00000000       0.00000000    -373.82015450 </v>
  </varray>
  <energy>
   <i name="e_fr_energy">   -351.94115143 </i>
   <i name="e_wo_entrp">   -351.89201983 </i>
   <i name="e_0_energy">     -0.14739480 </i>
  </energy>
  <kpoints>
   <generation param="Gamma">
    <v type="int" name="divisions">       3        3        3 </v>
    <v name="usershift">      0.00000000       0.00000000       0.00000000 </v>
    <v name="genvec1">      0.33333333       0.00000000       0.00000000 </v>
    <v name="genvec2">      0.00000000       0.33333333       0.00000000 </v>
    <v name="genvec3">      0.00000000       0.00000000       0.33333333 </v>
    <v name="shift">      0.00000000       0.00000000       0.00000000 </v>
   </generation>
   <varray name="kpointlist" >
    <v>       0.00000000       0.00000000       0.00000000 </v>
    <v>       0.33333333       0.00000000       0.00000000 </v>
    <v>       0.33333333       0.33333333       0.00000000 </v>
    <v>      -0.33333333       0.33333333       0.00000000 </v>
    <v>       0.00000000       0.33333333       0.33333333 </v>
    <v>      -0.33333333       0.33333333       0.33333333 </v>
   </varray>
   <varray name="weights" >
    <v>       0.03703704 </v>
    <v>       0.29629630 </v>
    <v>       0.14814815 </v>
    <v>       0.29629630 </v>
    <v>       0.07407407 </v>
    <v>       0.14814815 </v>
   </varray>
  </kpoints>
  <time name="totalsc">13290.9813279.96</time>
 </calculation>
 <calculation>
  <scstep>
   <time name="dav">  959.11  958.32</time>
   <time name="total"> 1003.01 1002.18</time>
   <energy>
    <i name="alphaZ">   7925.72117195 </i>
    <i name="ewald">-142726.42868060 </i>
    <i name="hartreedc"> -66219.67007328 </i>
    <i name="XCdc">   5593.19321974 </i>
    <i name="pawpsdc"> 170166.37070156 </i>
    <i name="pawaedc">-179177.99281750 </i>
    <i name="eentropy">     -0.14731064 </i>
    <i name="bandstr"> -19925.98639895 </i>
    <i name="atom"> 224013.29143063 </i>
    <i name="e_fr_energy">   -351.64875709 </i>
    <i name="e_wo_entrp">   -351.50144645 </i>
    <i name="e_0_energy">   -351.59965354 </i>
   </energy>
  </scstep>
  <scstep>
   <time name="dav">  777.81  777.16</time>
   <time name="total">  821.62  820.94</time>
   <energy>
    <i name="e_fr_energy">   -351.96250788 </i>
    <i name="e_wo_entrp">   -351.81614509 </i>
    <i name="e_0_energy">   -351.91372029 </i>
   </energy>
  </scstep>
  <scstep>
   <time name="dav">  884.55  883.81</time>
   <time name="total">  928.30  927.53</time>
   <energy>
    <i name="e_fr_energy">   -351.94451103 </i>
    <i name="e_wo_entrp">   -351.79701536 </i>
    <i name="e_0_energy">   -351.89534580 </i>
   </energy>
  </scstep>
  <scstep>
   <time name="dav">  904.59  903.84</time>
   <time name="total">  948.57  947.79</time>
   <energy>
    <i name="e_fr_energy">   -351.95483878 </i>
    <i name="e_wo_entrp">   -351.80784963 </i>
    <i name="e_0_energy">   -351.90584240 </i>
   </energy>
  </scstep>
  <scstep>
   <time name="dav">  812.32  811.65</time>
   <time name="total">  854.63  853.92</time>
   <energy>
    <i name="e_fr_energy">   -351.94184588 </i>
    <i name="e_wo_entrp">   -351.79442194 </i>
    <i name="e_0_energy">   -351.89270457 </i>
   </energy>
  </scstep>
  <scstep>
   <time name="dav">  937.07  936.29</time>
   <time name="total">  981.10  980.28</time>
   <energy>
    <i name="e_fr_energy">   -351.94160152 </i>
    <i name="e_wo_entrp">   -351.79418202 </i>
    <i name="e_0_energy">   -351.89246169 </i>
   </energy>
  </scstep>
  <scstep>
   <time name="dav">  834.47  833.78</time>
   <time name="total">  878.45  877.73</time>
   <energy>
    <i name="e_fr_energy">   -351.94155864 </i>
    <i name="e_wo_entrp">   -351.79414021 </i>
    <i name="e_0_energy">   -351.89241917 </i>
   </energy>
  </scstep>
  <scstep>
   <time name="dav">  820.30  819.62</time>
   <time name="total">  864.30  863.58</time>
   <energy>
    <i name="e_fr_energy">   -351.94140402 </i>
    <i name="e_wo_entrp">   -351.79399212 </i>
    <i name="e_0_energy">   -351.89226672 </i>
   </energy>
  </scstep>
  <scstep>
   <time name="dav">  831.18  830.49</time>
   <time name="total">  875.32  874.59</time>
   <energy>
    <i name="e_fr_energy">   -351.94152168 </i>
    <i name="e_wo_entrp">   -351.79411636 </i>
    <i name="e_0_energy">   -351.89238658 </i>
   </energy>
  </scstep>
  <scstep>
   <time name="dav">  889.66  888.92</time>
   <time name="total">  933.49  932.71</time>
   <energy>
    <i name="e_fr_energy">   -351.94124952 </i>
    <i name="e_wo_entrp">   -351.79386857 </i>
    <i name="e_0_energy">   -351.89212254 </i>
   </energy>
  </scstep>
  <scstep>
   <time name="dav">  948.00  947.21</time>
   <time name="total">  992.03  991.21</time>
   <energy>
    <i name="e_fr_energy">   -351.94115320 </i>
    <i name="e_wo_entrp">   -351.79376869 </i>
    <i name="e_0_energy">   -351.89202503 </i>
   </energy>
  </scstep>
  <scstep>
   <time name="dav">  998.35  997.53</time>
   <time name="total"> 1039.64 1038.78</time>
   <energy>
    <i name="e_fr_energy">   -351.94118055 </i>
    <i name="e_wo_entrp">   -351.79378889 </i>
    <i name="e_0_energy">   -351.89204999 </i>
   </energy>
  </scstep>
  <scstep>
   <time name="dav">  819.45  818.78</time>
   <time name="total">  863.49  862.77</time>
   <energy>
    <i name="e_fr_energy">   -351.94115087 </i>
    <i name="e_wo_entrp">   -351.79375307 </i>
    <i name="e_0_energy">   -351.89201827 </i>
   </energy>
  </scstep>
  <scstep>
   <time name="dav">  925.25  924.48</time>
   <time name="total">  968.37  967.56</time>
   <energy>
    <i name="e_fr_energy">   -351.94115846 </i>
    <i name="e_wo_entrp">   -351.79376410 </i>
    <i name="e_0_energy">   -351.89202701 </i>
   </energy>
  </scstep>
  <scstep>
   <time name="dav">  782.12  781.47</time>
   <time name="total">  826.37  825.68</time>
   <energy>
    <i name="e_fr_energy">   -351.94115104 </i>
    <i name="e_wo_entrp">   -351.79375780 </i>
    <i name="e_0_energy">   -351.89201996 </i>
   </energy>
  </scstep>
  <scstep>
   <time name="dav">  496.12  495.71</time>
   <time name="total">  499.60  499.19</time>
   <energy>
    <i name="alphaZ">   7925.72117195 </i>
    <i name="ewald">-142726.42868060 </i>
    <i name="hartreedc"> -66219.63474986 </i>
    <i name="XCdc">   5593.19122433 </i>
    <i name="pawpsdc"> 170166.38346027 </i>
    <i name="pawaedc">-179178.00659561 </i>
    <i name="eentropy">     -0.14739282 </i>
    <i name="bandstr"> -19926.31101924 </i>
    <i name="atom"> 224013.29143063 </i>
    <i name="e_fr_energy">   -351.94115093 </i>
    <i name="e_wo_entrp">   -351.79375812 </i>
    <i name="e_0_energy">   -351.89201999 </i>
   </energy>
  </scstep>
  <structure>
   <crystal>
    <varray name="basis" >
     <v>       0.00000000       7.57875000       7.57875000 </v>
     <v>       7.57875000       0.00000000       7.57875000 </v>
     <v>       7.57875000       7.57875000       0.00000000 </v>
    </varray>
    <i name="volume">    870.60817206 </i>
    <varray name="rec_basis" >
     <v>      -0.06597394       0.06597394       0.06597394 </v>
     <v>       0.06597394      -0.06597394       0.06597394 </v>
     <v>       0.06597394       0.06597394      -0.06597394 </v>
    </varray>
   </crystal>
   <varray name="positions" >
    <v>       0.00098961      -0.00098961      -0.00098961 </v>
    <v>       0.00000000       0.00000000       0.25000000 </v>
    <v>       0.00000000       0.00000000       0.50000000 </v>
    <v>       0.00000000       0.00000000       0.75000000 </v>
    <v>       0.00000000       0.25000000       0.00000000 </v>
    <v>       0.00000000       0.25000000       0.25000000 </v>
    <v>       0.00000000       0.25000000       0.50000000 </v>
    <v>       0.00000000       0.25000000       0.75000000 </v>
    <v>       0.00000000       0.50000000       0.00000000 </v>
    <v>       0.00000000       0.50000000       0.25000000 </v>
    <v>       0.00000000       0.50000000       0.50000000 </v>
    <v>       0.00000000       0.50000000       0.75000000 </v>
    <v>       0.00000000       0.75000000       0.00000000 </v>
    <v>       0.00000000       0.75000000       0.25000000 </v>
    <v>       0.00000000       0.75000000       0.50000000 </v>
    <v>       0.00000000       0.75000000       0.75000000 </v>
    <v>       0.25000000       0.00000000       0.00000000 </v>
    <v>       0.25000000       0.00000000       0.25000000 </v>
    <v>       0.25000000       0.00000000       0.50000000 </v>
    <v>       0.25000000       0.00000000       0.75000000 </v>
    <v>       0.25000000       0.25000000       0.00000000 </v>
    <v>       0.25000000       0.25000000       0.25000000 </v>
    <v>       0.25000000       0.25000000       0.50000000 </v>
    <v>       0.25000000       0.25000000       0.75000000 </v>
    <v>       0.25000000       0.50000000       0.00000000 </v>
    <v>       0.25000000       0.50000000       0.25000000 </v>
    <v>       0.25000000       0.50000000       0.50000000 </v>
    <v>       0.25000000       0.50000000       0.75000000 </v>
    <v>       0.25000000       0.75000000       0.00000000 </v>
    <v>       0.25000000       0.75000000       0.25000000 </v>
    <v>       0.25000000       0.75000000       0.50000000 </v>
    <v>       0.25000000       0.75000000       0.75000000 </v>
    <v>       0.50000000       0.00000000       0.00000000 </v>
    <v>       0.50000000       0.00000000       0.25000000 </v>
    <v>       0.50000000       0.00000000       0.50000000 </v>
    <v>       0.50000000       0.00000000       0.75000000 </v>
    <v>       0.50000000       0.25000000       0.00000000 </v>
    <v>       0.50000000       0.25000000       0.25000000 </v>
    <v>       0.50000000       0.25000000       0.50000000 </v>
    <v>       0.50000000       0.25000000       0.75000000 </v>
    <v>       0.50000000       0.50000000       0.00000000 </v>
    <v>       0.50000000       0.50000000       0.25000000 </v>
    <v>       0.50000000       0.50000000       0.50000000 </v>
    <v>       0.50000000       0.50000000       0.75000000 </v>
    <v>       0.50000000       0.75000000       0.00000000 </v>
    <v>       0.50000000       0.75000000       0.25000000 </v>
    <v>       0.50000000       0.75000000       0.50000000 </v>
    <v>       0.50000000       0.75000000       0.75000000 </v>
    <v>       0.75000000       0.00000000       0.00000000 </v>
    <v>       0.75000000       0.00000000       0.25000000 </v>
    <v>       0.75000000       0.00000000       0.50000000 </v>
    <v>       0.75000000       0.00000000       0.75000000 </v>
    <v>       0.75000000       0.25000000       0.00000000 </v>
    <v>       0.75000000       0.25000000       0.25000000 </v>
    <v>       0.75000000       0.25000000       0.50000000 </v>
    <v>       0.75000000       0.25000000       0.75000000 </v>
    <v>       0.75000000       0.50000000       0.00000000 </v>
    <v>       0.75000000       0.50000000       0.25000000 </v>
    <v>       0.75000000       0.50000000       0.50000000 </v>
    <v>       0.75000000       0.50000000       0.75000000 </v>
    <v>       0.75000000       0.75000000       0.00000000 </v>
    <v>       0.75000000       0.75000000       0.25000000 </v>
    <v>       0.75000000       0.75000000       0.50000000 </v>
    <v>       0.75000000       0.75000000       0.75000000 </v>
   </varray>
  </structure>
  <varray name="forces" >
[...]
       <r>    18.4964     0.0000   646.0000 </r>
       <r>    18.7724     0.0000   646.0000 </r>
       <r>    19.0485     0.0000   646.0000 </r>
       <r>    19.3245     0.0000   646.0000 </r>
       <r>    19.6006     0.0000   646.0000 </r>
       <r>    19.8766     0.0000   646.0000 </r>
       <r>    20.1527     0.0000   646.0000 </r>
       <r>    20.4287     0.0000   646.0000 </r>
       <r>    20.7048     0.0000   646.0000 </r>
      </set>
      <set comment="spin 2">
       <r>   -62.1101     0.0000     0.0000 </r>
       <r>   -61.8340     0.0000     0.0000 </r>
       <r>   -61.5580     0.0000     0.0000 </r>
       <r>   -61.2819     0.0000     0.0000 </r>
       <r>   -61.0059     0.0000     0.0000 </r>
       <r>   -60.7298     0.0000     0.0000 </r>
       <r>   -60.4538     0.0000     0.0000 </r>
       <r>   -60.1777     0.0000     0.0000 </r>
       <r>   -59.9017     0.0000     0.0000 </r>
       <r>   -59.6256     0.0000     0.0000 </r>
       <r>   -59.3496     0.0000     0.0000 </r>
       <r>   -59.0735    -0.0000    -0.0000 </r>
       <r>   -58.7975    -0.0000    -0.0000 </r>
       <r>   -58.5214    -0.0000    -0.0000 </r>
       <r>   -58.2454    -0.0000    -0.0000 </r>
       <r>   -57.9693    -0.0533    -0.0147 </r>
       <r>   -57.6933   -12.8419    -3.5597 </r>
       <r>   -57.4172   183.8740    47.1986 </r>
       <r>   -57.1412   541.7216   196.7405 </r>
       <r>   -56.8651   -15.9269   192.3439 </r>
       <r>   -56.5891    -1.2452   192.0001 </r>
       <r>   -56.3130    -0.0005   192.0000 </r>
       <r>   -56.0370    -0.0000   192.0000 </r>
       <r>   -55.7609     0.0000   192.0000 </r>
       <r>   -55.4849     0.0000   192.0000 </r>
       <r>   -55.2088     0.0000   192.0000 </r>
       <r>   -54.9328     0.0000   192.0000 </r>
       <r>   -54.6567     0.0000   192.0000 </r>
       <r>   -54.3807     0.0000   192.0000 </r>
       <r>   -54.1046     0.0000   192.0000 </r>
       <r>   -53.8286     0.0000   192.0000 </r>
       <r>   -53.5525     0.0000   192.0000 </r>
       <r>   -53.2765     0.0000   192.0000 </r>
       <r>   -53.0004     0.0000   192.0000 </r>
       <r>   -52.7244     0.0000   192.0000 </r>
       <r>   -52.4483     0.0000   192.0000 </r>
       <r>   -52.1723     0.0000   192.0000 </r>
       <r>   -51.8962     0.0000   192.0000 </r>
       <r>   -51.6202     0.0000   192.0000 </r>
       <r>   -51.3441     0.0000   192.0000 </r>
       <r>   -51.0681     0.0000   192.0000 </r>
       <r>   -50.7920     0.0000   192.0000 </r>
       <r>   -50.5160     0.0000   192.0000 </r>
       <r>   -50.2399     0.0000   192.0000 </r>
       <r>   -49.9639     0.0000   192.0000 </r>
       <r>   -49.6878     0.0000   192.0000 </r>
       <r>   -49.4118     0.0000   192.0000 </r>
       <r>   -49.1357     0.0000   192.0000 </r>
       <r>   -48.8597     0.0000   192.0000 </r>
       <r>   -48.5836     0.0000   192.0000 </r>
       <r>   -48.3076     0.0000   192.0000 </r>
       <r>   -48.0315     0.0000   192.0000 </r>
       <r>   -47.7555     0.0000   192.0000 </r>
       <r>   -47.4794     0.0000   192.0000 </r>
       <r>   -47.2034     0.0000   192.0000 </r>
       <r>   -46.9273     0.0000   192.0000 </r>
       <r>   -46.6513     0.0000   192.0000 </r>
       <r>   -46.3752     0.0000   192.0000 </r>
       <r>   -46.0992     0.0000   192.0000 </r>
       <r>   -45.8231     0.0000   192.0000 </r>
       <r>   -45.5471     0.0000   192.0000 </r>
       <r>   -45.2710     0.0000   192.0000 </r>
       <r>   -44.9950     0.0000   192.0000 </r>
       <r>   -44.7189     0.0000   192.0000 </r>
       <r>   -44.4429     0.0000   192.0000 </r>
       <r>   -44.1668     0.0000   192.0000 </r>
       <r>   -43.8908     0.0000   192.0000 </r>
       <r>   -43.6147     0.0000   192.0000 </r>
       <r>   -43.3387     0.0000   192.0000 </r>
       <r>   -43.0626     0.0000   192.0000 </r>
       <r>   -42.7866     0.0000   192.0000 </r>
       <r>   -42.5105     0.0000   192.0000 </r>
       <r>   -42.2345     0.0000   192.0000 </r>
       <r>   -41.9584     0.0000   192.0000 </r>
       <r>   -41.6824     0.0000   192.0000 </r>
       <r>   -41.4063     0.0000   192.0000 </r>
       <r>   -41.1303     0.0000   192.0000 </r>
       <r>   -40.8543     0.0000   192.0000 </r>
       <r>   -40.5782     0.0000   192.0000 </r>
       <r>   -40.3022     0.0000   192.0000 </r>
       <r>   -40.0261     0.0000   192.0000 </r>
       <r>   -39.7501     0.0000   192.0000 </r>
       <r>   -39.4740     0.0000   192.0000 </r>
       <r>   -39.1980     0.0000   192.0000 </r>
       <r>   -38.9219     0.0000   192.0000 </r>
       <r>   -38.6459     0.0000   192.0000 </r>
       <r>   -38.3698     0.0000   192.0000 </r>
       <r>   -38.0938     0.0000   192.0000 </r>
       <r>   -37.8177     0.0000   192.0000 </r>
       <r>   -37.5417     0.0000   192.0000 </r>
       <r>   -37.2656     0.0000   192.0000 </r>
       <r>   -36.9896     0.0000   192.0000 </r>
       <r>   -36.7135     0.0000   192.0000 </r>
       <r>   -36.4375     0.0000   192.0000 </r>
       <r>   -36.1614     0.0000   192.0000 </r>
       <r>   -35.8854     0.0000   192.0000 </r>
       <r>   -35.6093     0.0000   192.0000 </r>
       <r>   -35.3333     0.0000   192.0000 </r>
       <r>   -35.0572     0.0000   192.0000 </r>
       <r>   -34.7812     0.0000   192.0000 </r>
       <r>   -34.5051     0.0000   192.0000 </r>
       <r>   -34.2291     0.0000   192.0000 </r>
       <r>   -33.9530     0.0000   192.0000 </r>
       <r>   -33.6770     0.0000   192.0000 </r>
       <r>   -33.4009     0.0000   192.0000 </r>
       <r>   -33.1249     0.0000   192.0000 </r>
       <r>   -32.8488     0.0000   192.0000 </r>
       <r>   -32.5728     0.0000   192.0000 </r>
       <r>   -32.2967     0.0000   192.0000 </r>
       <r>   -32.0207     0.0000   192.0000 </r>
       <r>   -31.7446     0.0000   192.0000 </r>
       <r>   -31.4686     0.0000   192.0000 </r>
       <r>   -31.1925     0.0000   192.0000 </r>
       <r>   -30.9165     0.0000   192.0000 </r>
       <r>   -30.6404     0.0000   192.0000 </r>
       <r>   -30.3644     0.0000   192.0000 </r>
       <r>   -30.0883     0.0000   192.0000 </r>
       <r>   -29.8123     0.0000   192.0000 </r>
       <r>   -29.5362     0.0000   192.0000 </r>
       <r>   -29.2602     0.0000   192.0000 </r>
       <r>   -28.9841     0.0000   192.0000 </r>
       <r>   -28.7081     0.0000   192.0000 </r>
       <r>   -28.4320     0.0000   192.0000 </r>
       <r>   -28.1560     0.0000   192.0000 </r>
       <r>   -27.8799     0.0000   192.0000 </r>
       <r>   -27.6039     0.0000   192.0000 </r>
       <r>   -27.3278     0.0000   192.0000 </r>
       <r>   -27.0518     0.0000   192.0000 </r>
       <r>   -26.7757     0.0000   192.0000 </r>
       <r>   -26.4997     0.0000   192.0000 </r>
       <r>   -26.2236     0.0000   192.0000 </r>
       <r>   -25.9476     0.0000   192.0000 </r>
       <r>   -25.6715     0.0000   192.0000 </r>
       <r>   -25.3955     0.0000   192.0000 </r>
       <r>   -25.1194     0.0000   192.0000 </r>
       <r>   -24.8434     0.0000   192.0000 </r>
       <r>   -24.5673     0.0000   192.0000 </r>
       <r>   -24.2913     0.0000   192.0000 </r>
       <r>   -24.0152     0.0000   192.0000 </r>
       <r>   -23.7392     0.0000   192.0000 </r>
       <r>   -23.4631     0.0000   192.0000 </r>
       <r>   -23.1871     0.0000   192.0000 </r>
       <r>   -22.9110     0.0000   192.0000 </r>
       <r>   -22.6350     0.0000   192.0000 </r>
       <r>   -22.3589     0.0000   192.0000 </r>
       <r>   -22.0829     0.0000   192.0000 </r>
       <r>   -21.8068     0.0000   192.0000 </r>
       <r>   -21.5308     0.0000   192.0000 </r>
       <r>   -21.2547     0.0000   192.0000 </r>
       <r>   -20.9787     0.0000   192.0000 </r>
       <r>   -20.7026     0.0000   192.0000 </r>
       <r>   -20.4266     0.0000   192.0000 </r>
       <r>   -20.1505     0.0000   192.0000 </r>
       <r>   -19.8745     0.0000   192.0000 </r>
       <r>   -19.5985     0.0000   192.0000 </r>
       <r>   -19.3224     0.0000   192.0000 </r>
       <r>   -19.0464     0.0000   192.0000 </r>
       <r>   -18.7703     0.0000   192.0000 </r>
       <r>   -18.4943     0.0000   192.0000 </r>
       <r>   -18.2182     0.0000   192.0000 </r>
       <r>   -17.9422     0.0000   192.0000 </r>
       <r>   -17.6661     0.0000   192.0000 </r>
       <r>   -17.3901     0.0000   192.0000 </r>
       <r>   -17.1140     0.0000   192.0000 </r>
       <r>   -16.8380     0.0000   192.0000 </r>
       <r>   -16.5619     0.0000   192.0000 </r>
       <r>   -16.2859     0.0000   192.0000 </r>
       <r>   -16.0098     0.0000   192.0000 </r>
       <r>   -15.7338     0.0000   192.0000 </r>
       <r>   -15.4577     0.0000   192.0000 </r>
       <r>   -15.1817     0.0000   192.0000 </r>
       <r>   -14.9056     0.0000   192.0000 </r>
       <r>   -14.6296     0.0000   192.0000 </r>
       <r>   -14.3535     0.0000   192.0000 </r>
       <r>   -14.0775     0.0000   192.0000 </r>
       <r>   -13.8014     0.0000   192.0000 </r>
       <r>   -13.5254     0.0000   192.0000 </r>
       <r>   -13.2493     0.0000   192.0000 </r>
       <r>   -12.9733     0.0000   192.0000 </r>
       <r>   -12.6972     0.0000   192.0000 </r>
       <r>   -12.4212     0.0000   192.0000 </r>
       <r>   -12.1451     0.0000   192.0000 </r>
       <r>   -11.8691     0.0000   192.0000 </r>
       <r>   -11.5930     0.0000   192.0000 </r>
       <r>   -11.3170     0.0000   192.0000 </r>
       <r>   -11.0409     0.0000   192.0000 </r>
       <r>   -10.7649     0.0000   192.0000 </r>
       <r>   -10.4888     0.0000   192.0000 </r>
       <r>   -10.2128     0.0000   192.0000 </r>
       <r>    -9.9367     0.0000   192.0000 </r>
       <r>    -9.6607     0.0000   192.0000 </r>
       <r>    -9.3846     0.0000   192.0000 </r>
       <r>    -9.1086     0.0000   192.0000 </r>
       <r>    -8.8325     0.0000   192.0000 </r>
       <r>    -8.5565     0.0000   192.0000 </r>
       <r>    -8.2804     0.0000   192.0000 </r>
       <r>    -8.0044     0.0000   192.0000 </r>
       <r>    -7.7283     0.0000   192.0000 </r>
       <r>    -7.4523     0.0000   192.0000 </r>
       <r>    -7.1762     0.0000   192.0000 </r>
       <r>    -6.9002     0.0000   192.0000 </r>
       <r>    -6.6241     0.0000   192.0000 </r>
       <r>    -6.3481     0.0000   192.0000 </r>
       <r>    -6.0720     0.0000   192.0000 </r>
       <r>    -5.7960     0.0000   192.0000 </r>
       <r>    -5.5199     0.0000   192.0000 </r>
       <r>    -5.2439     0.0000   192.0000 </r>
       <r>    -4.9678     0.0000   192.0000 </r>
       <r>    -4.6918     0.0000   192.0000 </r>
       <r>    -4.4157     0.0000   192.0000 </r>
       <r>    -4.1397    -0.0000   192.0000 </r>
       <r>    -3.8636    -0.0000   192.0000 </r>
       <r>    -3.5876    -0.0000   192.0000 </r>
       <r>    -3.3115    -0.0000   192.0000 </r>
       <r>    -3.0355    -0.0000   192.0000 </r>
       <r>    -2.7594    -0.0003   191.9999 </r>
       <r>    -2.4834    -0.0091   191.9974 </r>
       <r>    -2.2073     0.1152   192.0292 </r>
       <r>    -1.9313     1.5329   192.4523 </r>
       <r>    -1.6552     1.2428   192.7954 </r>
       <r>    -1.3792     3.8682   193.8632 </r>
       <r>    -1.1031     1.4020   194.2503 </r>
       <r>    -0.8271     3.9955   195.3532 </r>
       <r>    -0.5510     4.3210   196.5460 </r>
       <r>    -0.2750     4.8892   197.8957 </r>
       <r>     0.0011     1.7509   198.3790 </r>
       <r>     0.2771     8.2951   200.6689 </r>
       <r>     0.5532     5.8043   202.2711 </r>
       <r>     0.8292     6.6629   204.1104 </r>
       <r>     1.1053     3.9020   205.1876 </r>
       <r>     1.3813    11.8119   208.4482 </r>
       <r>     1.6574    12.4920   211.8966 </r>
       <r>     1.9334     9.9861   214.6533 </r>
       <r>     2.2094    22.6366   220.9021 </r>
       <r>     2.4855    37.9401   231.3754 </r>
       <r>     2.7615    31.1073   239.9626 </r>
       <r>     3.0376    58.6780   256.1606 </r>
       <r>     3.3136    70.4867   275.6184 </r>
       <r>     3.5897    68.7545   294.5980 </r>
       <r>     3.8657    88.8193   319.1166 </r>
       <r>     4.1418   114.6614   350.7688 </r>
       <r>     4.4178   123.9393   384.9821 </r>
       <r>     4.6939    96.0705   411.5023 </r>
       <r>     4.9699   113.4769   442.8276 </r>
       <r>     5.2460   100.0085   470.4349 </r>
       <r>     5.5220   132.7957   507.0930 </r>
       <r>     5.7981    85.4133   530.6713 </r>
       <r>     6.0741    20.2572   536.2633 </r>
       <r>     6.3502     7.4972   538.3329 </r>
       <r>     6.6262    16.4387   542.8708 </r>
       <r>     6.9023    13.5599   546.6140 </r>
       <r>     7.1783    10.6064   549.5419 </r>
       <r>     7.4544     6.2072   551.2553 </r>
       <r>     7.7304    12.8955   554.8151 </r>
       <r>     8.0065    12.0440   558.1399 </r>
       <r>     8.2825     9.4475   560.7479 </r>
       <r>     8.5586     7.0782   562.7018 </r>
       <r>     8.8346     8.4209   565.0264 </r>
       <r>     9.1107     8.8333   567.4648 </r>
       <r>     9.3867     1.1733   567.7887 </r>
       <r>     9.6628     7.6792   569.9085 </r>
       <r>     9.9388     8.1783   572.1661 </r>
       <r>    10.2149     6.5321   573.9693 </r>
       <r>    10.4909    11.2178   577.0660 </r>
       <r>    10.7670    14.8935   581.1773 </r>
       <r>    11.0430     7.9639   583.3758 </r>
       <r>    11.3191     5.9689   585.0235 </r>
       <r>    11.5951     9.6104   587.6764 </r>
       <r>    11.8712    11.0649   590.7309 </r>
       <r>    12.1472     5.7751   592.3251 </r>
       <r>    12.4233    14.4025   596.3009 </r>
       <r>    12.6993    10.8616   599.2993 </r>
       <r>    12.9754     5.0634   600.6970 </r>
       <r>    13.2514    11.3650   603.8343 </r>
       <r>    13.5275     8.5514   606.1949 </r>
       <r>    13.8035    10.6253   609.1280 </r>
       <r>    14.0796     8.1525   611.3785 </r>
       <r>    14.3556    14.6329   615.4179 </r>
       <r>    14.6317    17.7963   620.3306 </r>
       <r>    14.9077    13.6054   624.0864 </r>
       <r>    15.1838    12.4901   627.5342 </r>
       <r>    15.4598    13.4468   631.2462 </r>
       <r>    15.7359     9.6548   633.9114 </r>
       <r>    16.0119    15.0270   638.0596 </r>
       <r>    16.2880     8.0953   640.2943 </r>
       <r>    16.5640    11.0285   643.3387 </r>
       <r>    16.8401     7.7866   645.4882 </r>
       <r>    17.1161     1.8907   646.0101 </r>
       <r>    17.3922    -0.0291   646.0021 </r>
       <r>    17.6682    -0.0076   646.0000 </r>
       <r>    17.9443    -0.0000   646.0000 </r>
       <r>    18.2203    -0.0000   646.0000 </r>
       <r>    18.4964     0.0000   646.0000 </r>
       <r>    18.7724     0.0000   646.0000 </r>
       <r>    19.0485     0.0000   646.0000 </r>
       <r>    19.3245     0.0000   646.0000 </r>
       <r>    19.6006     0.0000   646.0000 </r>
       <r>    19.8766     0.0000   646.0000 </r>
       <r>    20.1527     0.0000   646.0000 </r>
       <r>    20.4287     0.0000   646.0000 </r>
       <r>    20.7048     0.0000   646.0000 </r>
      </set>
     </set>
    </array>
   </total>
  </dos>
 </calculation>
 <structure name="finalpos" >
  <crystal>
   <varray name="basis" >
    <v>       0.00000000       7.57875000       7.57875000 </v>
    <v>       7.57875000       0.00000000       7.57875000 </v>
    <v>       7.57875000       7.57875000       0.00000000 </v>
   </varray>
   <i name="volume">    870.60817206 </i>
   <varray name="rec_basis" >
    <v>      -0.06597394       0.06597394       0.06597394 </v>
    <v>       0.06597394      -0.06597394       0.06597394 </v>
    <v>       0.06597394       0.06597394      -0.06597394 </v>
   </varray>
  </crystal>
  <varray name="positions" >
   <v>       0.00197922      -0.00197922      -0.00197922 </v>
   <v>       0.00000000       0.00000000       0.25000000 </v>
   <v>       0.00000000       0.00000000       0.50000000 </v>
   <v>       0.00000000       0.00000000       0.75000000 </v>
   <v>       0.00000000       0.25000000       0.00000000 </v>
   <v>       0.00000000       0.25000000       0.25000000 </v>
   <v>       0.00000000       0.25000000       0.50000000 </v>
   <v>       0.00000000       0.25000000       0.75000000 </v>
   <v>       0.00000000       0.50000000       0.00000000 </v>
   <v>       0.00000000       0.50000000       0.25000000 </v>
   <v>       0.00000000       0.50000000       0.50000000 </v>
   <v>       0.00000000       0.50000000       0.75000000 </v>
   <v>       0.00000000       0.75000000       0.00000000 </v>
   <v>       0.00000000       0.75000000       0.25000000 </v>
   <v>       0.00000000       0.75000000       0.50000000 </v>
   <v>       0.00000000       0.75000000       0.75000000 </v>
   <v>       0.25000000       0.00000000       0.00000000 </v>
   <v>       0.25000000       0.00000000       0.25000000 </v>
   <v>       0.25000000       0.00000000       0.50000000 </v>
   <v>       0.25000000       0.00000000       0.75000000 </v>
   <v>       0.25000000       0.25000000       0.00000000 </v>
   <v>       0.25000000       0.25000000       0.25000000 </v>
   <v>       0.25000000       0.25000000       0.50000000 </v>
   <v>       0.25000000       0.25000000       0.75000000 </v>
   <v>       0.25000000       0.50000000       0.00000000 </v>
   <v>       0.25000000       0.50000000       0.25000000 </v>
   <v>       0.25000000       0.50000000       0.50000000 </v>
   <v>       0.25000000       0.50000000       0.75000000 </v>
   <v>       0.25000000       0.75000000       0.00000000 </v>
   <v>       0.25000000       0.75000000       0.25000000 </v>
   <v>       0.25000000       0.75000000       0.50000000 </v>
   <v>       0.25000000       0.75000000       0.75000000 </v>
   <v>       0.50000000       0.00000000       0.00000000 </v>
   <v>       0.50000000       0.00000000       0.25000000 </v>
   <v>       0.50000000       0.00000000       0.50000000 </v>
   <v>       0.50000000       0.00000000       0.75000000 </v>
   <v>       0.50000000       0.25000000       0.00000000 </v>
   <v>       0.50000000       0.25000000       0.25000000 </v>
   <v>       0.50000000       0.25000000       0.50000000 </v>
   <v>       0.50000000       0.25000000       0.75000000 </v>
   <v>       0.50000000       0.50000000       0.00000000 </v>
   <v>       0.50000000       0.50000000       0.25000000 </v>
   <v>       0.50000000       0.50000000       0.50000000 </v>
   <v>       0.50000000       0.50000000       0.75000000 </v>
   <v>       0.50000000       0.75000000       0.00000000 </v>
   <v>       0.50000000       0.75000000       0.25000000 </v>
   <v>       0.50000000       0.75000000       0.50000000 </v>
   <v>       0.50000000       0.75000000       0.75000000 </v>
   <v>       0.75000000       0.00000000       0.00000000 </v>
   <v>       0.75000000       0.00000000       0.25000000 </v>
   <v>       0.75000000       0.00000000       0.50000000 </v>
   <v>       0.75000000       0.00000000       0.75000000 </v>
   <v>       0.75000000       0.25000000       0.00000000 </v>
   <v>       0.75000000       0.25000000       0.25000000 </v>
   <v>       0.75000000       0.25000000       0.50000000 </v>
   <v>       0.75000000       0.25000000       0.75000000 </v>
   <v>       0.75000000       0.50000000       0.00000000 </v>
   <v>       0.75000000       0.50000000       0.25000000 </v>
   <v>       0.75000000       0.50000000       0.50000000 </v>
   <v>       0.75000000       0.50000000       0.75000000 </v>
   <v>       0.75000000       0.75000000       0.00000000 </v>
   <v>       0.75000000       0.75000000       0.25000000 </v>
   <v>       0.75000000       0.75000000       0.50000000 </v>
   <v>       0.75000000       0.75000000       0.75000000 </v>
  </varray>
 </structure>
</modeling>
