       N       E                     dE             d eps       ncg     rms          rms(c)
DAV:   1     0.161067558138E+05    0.16107E+05   -0.59248E+05 11560   0.225E+03
DAV:   2     0.119370607324E+04   -0.14913E+05   -0.14465E+05 10368   0.724E+02
DAV:   3    -0.343493212866E+03   -0.15372E+04   -0.12905E+04 10488   0.249E+02
DAV:   4    -0.430702527861E+03   -0.87209E+02   -0.84691E+02 11064   0.622E+01
DAV:   5    -0.432144639641E+03   -0.14421E+01   -0.14402E+01 11056   0.783E+00    0.673E+01
DAV:   6    -0.393539007566E+03    0.38606E+02   -0.55881E+02 10896   0.728E+01    0.447E+01
DAV:   7    -0.369472219093E+03    0.24067E+02   -0.10076E+02 10856   0.314E+01    0.601E+00
DAV:   8    -0.369361349126E+03    0.11087E+00   -0.11025E+00 11080   0.235E+00    0.277E+00
DAV:   9    -0.369241809331E+03    0.11954E+00   -0.15215E-01 12112   0.752E-01    0.706E-01
DAV:  10    -0.369245525707E+03   -0.37164E-02   -0.10893E-02 11320   0.203E-01    0.254E-01
DAV:  11    -0.369247652357E+03   -0.21266E-02   -0.34158E-03 11104   0.137E-01    0.873E-02
DAV:  12    -0.369247704152E+03   -0.51795E-04   -0.40554E-04 10888   0.471E-02    0.278E-02
DAV:  13    -0.369247709621E+03   -0.54686E-05   -0.20964E-05 10304   0.102E-02    0.201E-02
DAV:  14    -0.369247685439E+03    0.24182E-04   -0.96181E-06  9184   0.905E-03    0.485E-03
DAV:  15    -0.369247680609E+03    0.48306E-05   -0.89271E-07  5472   0.285E-03    0.123E-03
DAV:  16    -0.369247680806E+03   -0.19703E-06   -0.15153E-07  5472   0.115E-03
   1 F= -.36924768E+03 E0= -.36918758E+03  d E =-.180315E+00  mag=    42.0734
 Linear response reoptimize wavefunctions
DAV:   1    -0.369247681365E+03   -0.55932E-06   -0.25823E-08  5640   0.495E-04
DAV:   2    -0.369247681365E+03   -0.17462E-09   -0.64360E-09  5464   0.294E-04
DAV:   3    -0.369247681366E+03   -0.69849E-09   -0.17004E-09  5448   0.162E-04
 Linear response DOF=           1
 Linear response progress:
  Degree of freedom:   1/  1
       N       E                     dE             d eps       ncg     rms          rms(c)
RMM:   1    -0.135211381838E+01   -0.13521E+01   -0.44624E+02 15691   0.111E+02
RMM:   2    -0.161644388560E+01   -0.26433E+00   -0.11378E-01 25306   0.662E-01    0.379E-01
RMM:   3    -0.161631351832E+01    0.13037E-03   -0.23056E-03 24337   0.983E-02    0.863E-01
RMM:   4    -0.161530703502E+01    0.10065E-02   -0.15065E-03 17712   0.103E-01    0.581E-01
RMM:   5    -0.161592604651E+01   -0.61901E-03   -0.57714E-04 18171   0.584E-02    0.471E-01
RMM:   6    -0.161509846780E+01    0.82758E-03   -0.24642E-04 17549   0.429E-02    0.924E-02
RMM:   7    -0.161511830369E+01   -0.19836E-04   -0.12529E-04 19105   0.268E-02    0.246E-01
RMM:   8    -0.161477171503E+01    0.34659E-03   -0.75281E-05 17831   0.241E-02    0.562E-02
RMM:   9    -0.161478496396E+01   -0.13249E-04   -0.11725E-06 22314   0.914E-03    0.400E-02
RMM:  10    -0.161455858649E+01    0.22638E-03   -0.48831E-06 25243   0.496E-03    0.205E-02
RMM:  11    -0.161470874538E+01   -0.15016E-03    0.72496E-06 27150   0.292E-03    0.138E-02
RMM:  12    -0.161456210109E+01    0.14664E-03   -0.80218E-07 25952   0.266E-03    0.113E-02
RMM:  13    -0.161459400829E+01   -0.31907E-04    0.15316E-06 26004   0.235E-03    0.452E-03
RMM:  14    -0.161458450761E+01    0.95007E-05   -0.22939E-06 30139   0.173E-03    0.704E-03
RMM:  15    -0.161457298315E+01    0.11524E-04   -0.60386E-06 31414   0.161E-03    0.146E-03
RMM:  16    -0.161456752265E+01    0.54605E-05   -0.51389E-06 34078   0.139E-03    0.312E-03
RMM:  17    -0.161457148314E+01   -0.39605E-05   -0.48650E-06 34692   0.134E-03    0.571E-04
RMM:  18    -0.161457097086E+01    0.51228E-06    0.29234E-06 37293   0.124E-03    0.417E-04
 Linear response finished
