 vasp.5.4.1 05Feb16 (build Oct 12 2016 17:31:35) complex                        
  
 executed on           IFC91_ompi date 2020.09.08  21:52:14
 running on    8 total cores
 distrk:  each k-point on    8 cores,    1 groups
 distr:  one band on NCORES_PER_BAND=   1 cores,    8 groups


--------------------------------------------------------------------------------------------------------


 INCAR:
 POTCAR:   PAW_PBE Ni_pv 06Sep2000                

 ----------------------------------------------------------------------------- 
|                                                                             |
|           W    W    AA    RRRRR   N    N  II  N    N   GGGG   !!!           |
|           W    W   A  A   R    R  NN   N  II  NN   N  G    G  !!!           |
|           W    W  A    A  R    R  N N  N  II  N N  N  G       !!!           |
|           W WW W  AAAAAA  RRRRR   N  N N  II  N  N N  G  GGG   !            |
|           WW  WW  A    A  R   R   N   NN  II  N   NN  G    G                |
|           W    W  A    A  R    R  N    N  II  N    N   GGGG   !!!           |
|                                                                             |
|      For optimal performance we recommend to set                            |
|        NCORE= 4 - approx SQRT( number of cores)                             |
|      NCORE specifies how many cores store one orbital (NPAR=cpu/NCORE).     |
|      This setting can  greatly improve the performance of VASP for DFT.     |
|      The default, NPAR=number of cores might be grossly inefficient         |
|      on modern multi-core architectures or massively parallel machines.     |
|      Do your own testing !!!!                                               |
|      Unfortunately you need to use the default for GW and RPA calculations. |
|      (for HF NCORE is supported but not extensively tested yet)             |
|                                                                             |
 ----------------------------------------------------------------------------- 

 POTCAR:   PAW_PBE Ni_pv 06Sep2000                
  local pseudopotential read in
  partial core-charges read in
  atomic valenz-charges read in
  non local Contribution for L=           1  read in
    real space projection operators read in
  non local Contribution for L=           1  read in
    real space projection operators read in
  non local Contribution for L=           2  read in
    real space projection operators read in
  non local Contribution for L=           2  read in
    real space projection operators read in
  non local Contribution for L=           0  read in
    real space projection operators read in
  non local Contribution for L=           0  read in
    real space projection operators read in
    PAW grid and wavefunctions read in
 
   number of l-projection  operators is LMAX  =           6
   number of lm-projection operators is LMMAX =          18
 

 ----------------------------------------------------------------------------- 
|                                                                             |
|  ADVICE TO THIS USER RUNNING 'VASP/VAMP'   (HEAR YOUR MASTER'S VOICE ...):  |
|                                                                             |
|      You have a (more or less) 'large supercell' and for larger cells       |
|      it might be more efficient to use real space projection operators      |
|      So try LREAL= Auto  in the INCAR   file.                               |
|      Mind: If you want to do a very accurate calculations keep the          |
|      reciprocal projection scheme          (i.e. LREAL=.FALSE.)             |
|                                                                             |
 ----------------------------------------------------------------------------- 

 PAW_PBE Ni_pv 06Sep2000                :
 energy of atom  1       EATOM=-3500.3496
 kinetic energy error for atom=    0.0894 (will be added to EATOM!!)
 
 
 POSCAR: Supercell by Yi Wang                    
  positions in direct lattice
  No initial velocities read in
 exchange correlation table for  LEXCH =        8
   RHO(1)=    0.500       N(1)  =     2000
   RHO(2)=  100.500       N(2)  =     4000
 


--------------------------------------------------------------------------------------------------------


 ion  position               nearest neighbor table
   1  0.000  0.000  0.000-   2 2.46   4 2.46   5 2.46   8 2.46  13 2.46  14 2.46  17 2.46  20 2.46
                            29 2.46  49 2.46  50 2.46  53 2.46
   2  0.000  0.000  0.250-   1 2.46   3 2.46   5 2.46   6 2.46  14 2.46  15 2.46  17 2.46  18 2.46
                            30 2.46  50 2.46  51 2.46  54 2.46
   3  0.000  0.000  0.500-   2 2.46   4 2.46   6 2.46   7 2.46  15 2.46  16 2.46  18 2.46  19 2.46
                            31 2.46  51 2.46  52 2.46  55 2.46
   4  0.000  0.000  0.750-   1 2.46   3 2.46   7 2.46   8 2.46  13 2.46  16 2.46  19 2.46  20 2.46
                            32 2.46  49 2.46  52 2.46  56 2.46
   5  0.000  0.250  0.000-   1 2.46   2 2.46   6 2.46   8 2.46   9 2.46  12 2.46  17 2.46  21 2.46
                            24 2.46  53 2.46  54 2.46  57 2.46
   6  0.000  0.250  0.250-   2 2.46   3 2.46   5 2.46   7 2.46   9 2.46  10 2.46  18 2.46  21 2.46
                            22 2.46  54 2.46  55 2.46  58 2.46
   7  0.000  0.250  0.500-   3 2.46   4 2.46   6 2.46   8 2.46  10 2.46  11 2.46  19 2.46  22 2.46
                            23 2.46  55 2.46  56 2.46  59 2.46
   8  0.000  0.250  0.750-   1 2.46   4 2.46   5 2.46   7 2.46  11 2.46  12 2.46  20 2.46  23 2.46
                            24 2.46  53 2.46  56 2.46  60 2.46
   9  0.000  0.500  0.000-   5 2.46   6 2.46  10 2.46  12 2.46  13 2.46  16 2.46  21 2.46  25 2.46
                            28 2.46  57 2.46  58 2.46  61 2.46
  10  0.000  0.500  0.250-   6 2.46   7 2.46   9 2.46  11 2.46  13 2.46  14 2.46  22 2.46  25 2.46
                            26 2.46  58 2.46  59 2.46  62 2.46
  11  0.000  0.500  0.500-   7 2.46   8 2.46  10 2.46  12 2.46  14 2.46  15 2.46  23 2.46  26 2.46
                            27 2.46  59 2.46  60 2.46  63 2.46
  12  0.000  0.500  0.750-   5 2.46   8 2.46   9 2.46  11 2.46  15 2.46  16 2.46  24 2.46  27 2.46
                            28 2.46  57 2.46  60 2.46  64 2.46
  13  0.000  0.750  0.000-   1 2.46   4 2.46   9 2.46  10 2.46  14 2.46  16 2.46  25 2.46  29 2.46
                            32 2.46  49 2.46  61 2.46  62 2.46
  14  0.000  0.750  0.250-   1 2.46   2 2.46  10 2.46  11 2.46  13 2.46  15 2.46  26 2.46  29 2.46
                            30 2.46  50 2.46  62 2.46  63 2.46
  15  0.000  0.750  0.500-   2 2.46   3 2.46  11 2.46  12 2.46  14 2.46  16 2.46  27 2.46  30 2.46
                            31 2.46  51 2.46  63 2.46  64 2.46
  16  0.000  0.750  0.750-   3 2.46   4 2.46   9 2.46  12 2.46  13 2.46  15 2.46  28 2.46  31 2.46
                            32 2.46  52 2.46  61 2.46  64 2.46
  17  0.250  0.000  0.000-   1 2.46   2 2.46   5 2.46  18 2.46  20 2.46  21 2.46  24 2.46  29 2.46
                            30 2.46  33 2.46  36 2.46  45 2.46
  18  0.250  0.000  0.250-   2 2.46   3 2.46   6 2.46  17 2.46  19 2.46  21 2.46  22 2.46  30 2.46
                            31 2.46  33 2.46  34 2.46  46 2.46
  19  0.250  0.000  0.500-   3 2.46   4 2.46   7 2.46  18 2.46  20 2.46  22 2.46  23 2.46  31 2.46
                            32 2.46  34 2.46  35 2.46  47 2.46
  20  0.250  0.000  0.750-   1 2.46   4 2.46   8 2.46  17 2.46  19 2.46  23 2.46  24 2.46  29 2.46
                            32 2.46  35 2.46  36 2.46  48 2.46
  21  0.250  0.250  0.000-   5 2.46   6 2.46   9 2.46  17 2.46  18 2.46  22 2.46  24 2.46  25 2.46
                            28 2.46  33 2.46  37 2.46  40 2.46
  22  0.250  0.250  0.250-   6 2.46   7 2.46  10 2.46  18 2.46  19 2.46  21 2.46  23 2.46  25 2.46
                            26 2.46  34 2.46  37 2.46  38 2.46
  23  0.250  0.250  0.500-   7 2.46   8 2.46  11 2.46  19 2.46  20 2.46  22 2.46  24 2.46  26 2.46
                            27 2.46  35 2.46  38 2.46  39 2.46
  24  0.250  0.250  0.750-   5 2.46   8 2.46  12 2.46  17 2.46  20 2.46  21 2.46  23 2.46  27 2.46
                            28 2.46  36 2.46  39 2.46  40 2.46
  25  0.250  0.500  0.000-   9 2.46  10 2.46  13 2.46  21 2.46  22 2.46  26 2.46  28 2.46  29 2.46
                            32 2.46  37 2.46  41 2.46  44 2.46
  26  0.250  0.500  0.250-  10 2.46  11 2.46  14 2.46  22 2.46  23 2.46  25 2.46  27 2.46  29 2.46
                            30 2.46  38 2.46  41 2.46  42 2.46
  27  0.250  0.500  0.500-  11 2.46  12 2.46  15 2.46  23 2.46  24 2.46  26 2.46  28 2.46  30 2.46
                            31 2.46  39 2.46  42 2.46  43 2.46
  28  0.250  0.500  0.750-   9 2.46  12 2.46  16 2.46  21 2.46  24 2.46  25 2.46  27 2.46  31 2.46
                            32 2.46  40 2.46  43 2.46  44 2.46
  29  0.250  0.750  0.000-   1 2.46  13 2.46  14 2.46  17 2.46  20 2.46  25 2.46  26 2.46  30 2.46
                            32 2.46  41 2.46  45 2.46  48 2.46
  30  0.250  0.750  0.250-   2 2.46  14 2.46  15 2.46  17 2.46  18 2.46  26 2.46  27 2.46  29 2.46
                            31 2.46  42 2.46  45 2.46  46 2.46
  31  0.250  0.750  0.500-   3 2.46  15 2.46  16 2.46  18 2.46  19 2.46  27 2.46  28 2.46  30 2.46
                            32 2.46  43 2.46  46 2.46  47 2.46
  32  0.250  0.750  0.750-   4 2.46  13 2.46  16 2.46  19 2.46  20 2.46  25 2.46  28 2.46  29 2.46
                            31 2.46  44 2.46  47 2.46  48 2.46
  33  0.500  0.000  0.000-  17 2.46  18 2.46  21 2.46  34 2.46  36 2.46  37 2.46  40 2.46  45 2.46
                            46 2.46  49 2.46  52 2.46  61 2.46
  34  0.500  0.000  0.250-  18 2.46  19 2.46  22 2.46  33 2.46  35 2.46  37 2.46  38 2.46  46 2.46
                            47 2.46  49 2.46  50 2.46  62 2.46
  35  0.500  0.000  0.500-  19 2.46  20 2.46  23 2.46  34 2.46  36 2.46  38 2.46  39 2.46  47 2.46
                            48 2.46  50 2.46  51 2.46  63 2.46
  36  0.500  0.000  0.750-  17 2.46  20 2.46  24 2.46  33 2.46  35 2.46  39 2.46  40 2.46  45 2.46
                            48 2.46  51 2.46  52 2.46  64 2.46
  37  0.500  0.250  0.000-  21 2.46  22 2.46  25 2.46  33 2.46  34 2.46  38 2.46  40 2.46  41 2.46
                            44 2.46  49 2.46  53 2.46  56 2.46
  38  0.500  0.250  0.250-  22 2.46  23 2.46  26 2.46  34 2.46  35 2.46  37 2.46  39 2.46  41 2.46
                            42 2.46  50 2.46  53 2.46  54 2.46
  39  0.500  0.250  0.500-  23 2.46  24 2.46  27 2.46  35 2.46  36 2.46  38 2.46  40 2.46  42 2.46
                            43 2.46  51 2.46  54 2.46  55 2.46
  40  0.500  0.250  0.750-  21 2.46  24 2.46  28 2.46  33 2.46  36 2.46  37 2.46  39 2.46  43 2.46
                            44 2.46  52 2.46  55 2.46  56 2.46
  41  0.500  0.500  0.000-  25 2.46  26 2.46  29 2.46  37 2.46  38 2.46  42 2.46  44 2.46  45 2.46
                            48 2.46  53 2.46  57 2.46  60 2.46
  42  0.500  0.500  0.250-  26 2.46  27 2.46  30 2.46  38 2.46  39 2.46  41 2.46  43 2.46  45 2.46
                            46 2.46  54 2.46  57 2.46  58 2.46
  43  0.500  0.500  0.500-  27 2.46  28 2.46  31 2.46  39 2.46  40 2.46  42 2.46  44 2.46  46 2.46
                            47 2.46  55 2.46  58 2.46  59 2.46
  44  0.500  0.500  0.750-  25 2.46  28 2.46  32 2.46  37 2.46  40 2.46  41 2.46  43 2.46  47 2.46
                            48 2.46  56 2.46  59 2.46  60 2.46
  45  0.500  0.750  0.000-  17 2.46  29 2.46  30 2.46  33 2.46  36 2.46  41 2.46  42 2.46  46 2.46
                            48 2.46  57 2.46  61 2.46  64 2.46
  46  0.500  0.750  0.250-  18 2.46  30 2.46  31 2.46  33 2.46  34 2.46  42 2.46  43 2.46  45 2.46
                            47 2.46  58 2.46  61 2.46  62 2.46
  47  0.500  0.750  0.500-  19 2.46  31 2.46  32 2.46  34 2.46  35 2.46  43 2.46  44 2.46  46 2.46
                            48 2.46  59 2.46  62 2.46  63 2.46
  48  0.500  0.750  0.750-  20 2.46  29 2.46  32 2.46  35 2.46  36 2.46  41 2.46  44 2.46  45 2.46
                            47 2.46  60 2.46  63 2.46  64 2.46
  49  0.750  0.000  0.000-   1 2.46   4 2.46  13 2.46  33 2.46  34 2.46  37 2.46  50 2.46  52 2.46
                            53 2.46  56 2.46  61 2.46  62 2.46
  50  0.750  0.000  0.250-   1 2.46   2 2.46  14 2.46  34 2.46  35 2.46  38 2.46  49 2.46  51 2.46
                            53 2.46  54 2.46  62 2.46  63 2.46
  51  0.750  0.000  0.500-   2 2.46   3 2.46  15 2.46  35 2.46  36 2.46  39 2.46  50 2.46  52 2.46
                            54 2.46  55 2.46  63 2.46  64 2.46
  52  0.750  0.000  0.750-   3 2.46   4 2.46  16 2.46  33 2.46  36 2.46  40 2.46  49 2.46  51 2.46
                            55 2.46  56 2.46  61 2.46  64 2.46
  53  0.750  0.250  0.000-   1 2.46   5 2.46   8 2.46  37 2.46  38 2.46  41 2.46  49 2.46  50 2.46
                            54 2.46  56 2.46  57 2.46  60 2.46
  54  0.750  0.250  0.250-   2 2.46   5 2.46   6 2.46  38 2.46  39 2.46  42 2.46  50 2.46  51 2.46
                            53 2.46  55 2.46  57 2.46  58 2.46
  55  0.750  0.250  0.500-   3 2.46   6 2.46   7 2.46  39 2.46  40 2.46  43 2.46  51 2.46  52 2.46
                            54 2.46  56 2.46  58 2.46  59 2.46
  56  0.750  0.250  0.750-   4 2.46   7 2.46   8 2.46  37 2.46  40 2.46  44 2.46  49 2.46  52 2.46
                            53 2.46  55 2.46  59 2.46  60 2.46
  57  0.750  0.500  0.000-   5 2.46   9 2.46  12 2.46  41 2.46  42 2.46  45 2.46  53 2.46  54 2.46
                            58 2.46  60 2.46  61 2.46  64 2.46
  58  0.750  0.500  0.250-   6 2.46   9 2.46  10 2.46  42 2.46  43 2.46  46 2.46  54 2.46  55 2.46
                            57 2.46  59 2.46  61 2.46  62 2.46
  59  0.750  0.500  0.500-   7 2.46  10 2.46  11 2.46  43 2.46  44 2.46  47 2.46  55 2.46  56 2.46
                            58 2.46  60 2.46  62 2.46  63 2.46
  60  0.750  0.500  0.750-   8 2.46  11 2.46  12 2.46  41 2.46  44 2.46  48 2.46  53 2.46  56 2.46
                            57 2.46  59 2.46  63 2.46  64 2.46
  61  0.750  0.750  0.000-   9 2.46  13 2.46  16 2.46  33 2.46  45 2.46  46 2.46  49 2.46  52 2.46
                            57 2.46  58 2.46  62 2.46  64 2.46
  62  0.750  0.750  0.250-  10 2.46  13 2.46  14 2.46  34 2.46  46 2.46  47 2.46  49 2.46  50 2.46
                            58 2.46  59 2.46  61 2.46  63 2.46
  63  0.750  0.750  0.500-  11 2.46  14 2.46  15 2.46  35 2.46  47 2.46  48 2.46  50 2.46  51 2.46
                            59 2.46  60 2.46  62 2.46  64 2.46
  64  0.750  0.750  0.750-  12 2.46  15 2.46  16 2.46  36 2.46  45 2.46  48 2.46  51 2.46  52 2.46
                            57 2.46  60 2.46  61 2.46  63 2.46
 
  LATTYP: Found a face centered cubic cell.
 ALAT       =    13.8885000000
  
  Lattice vectors:
  
 A1 = (   0.0000000000,   6.9442500000,   6.9442500000)
 A2 = (   6.9442500000,   0.0000000000,   6.9442500000)
 A3 = (   6.9442500000,   6.9442500000,   0.0000000000)


Analysis of symmetry for initial positions (statically):
=====================================================================
 Subroutine PRICEL returns following result:
 
  LATTYP: Found a face centered cubic cell.
 ALAT       =     3.4721250000
  
  Lattice vectors:
  
 A1 = (   0.0000000000,   1.7360625000,   1.7360625000)
 A2 = (   1.7360625000,   0.0000000000,   1.7360625000)
 A3 = (   1.7360625000,   1.7360625000,   0.0000000000)
 
  64 primitive cells build up your supercell.
 

 Routine SETGRP: Setting up the symmetry group for a 
 face centered cubic supercell.


 Subroutine GETGRP returns: Found 48 space group operations
 (whereof 48 operations were pure point group operations)
 out of a pool of 48 trial point group operations.


The static configuration has the point symmetry O_h .


Analysis of symmetry for dynamics (positions and initial velocities):
=====================================================================
 Subroutine PRICEL returns following result:
 
  LATTYP: Found a face centered cubic cell.
 ALAT       =     3.4721250000
  
  Lattice vectors:
  
 A1 = (   0.0000000000,   1.7360625000,   1.7360625000)
 A2 = (   1.7360625000,   0.0000000000,   1.7360625000)
 A3 = (   1.7360625000,   1.7360625000,   0.0000000000)
 
  64 primitive cells build up your supercell.
 

 Routine SETGRP: Setting up the symmetry group for a 
 face centered cubic supercell.


 Subroutine GETGRP returns: Found 48 space group operations
 (whereof 48 operations were pure point group operations)
 out of a pool of 48 trial point group operations.


The dynamic configuration has the point symmetry O_h .


Analysis of structural, dynamic, and magnetic symmetry:
=====================================================================
 Subroutine PRICEL returns following result:
 
  LATTYP: Found a face centered cubic cell.
 ALAT       =     3.4721250000
  
  Lattice vectors:
  
 A1 = (   0.0000000000,   1.7360625000,   1.7360625000)
 A2 = (   1.7360625000,   0.0000000000,   1.7360625000)
 A3 = (   1.7360625000,   1.7360625000,   0.0000000000)
 
  64 primitive cells build up your supercell.
 

 Routine SETGRP: Setting up the symmetry group for a 
 face centered cubic supercell.


 Subroutine GETGRP returns: Found 48 space group operations
 (whereof 48 operations were pure point group operations)
 out of a pool of 48 trial point group operations.


The magnetic configuration has the point symmetry O_h .


 Subroutine INISYM returns: Found 48 space group operations
 (whereof 48 operations are pure point group operations),
 and found    64 'primitive' translations

 
 
 KPOINTS: Zr 15x15x15                             

Automatic generation of k-mesh.
Space group operators:
 irot       det(A)        alpha          n_x          n_y          n_z        tau_x        tau_y        tau_z
    1     1.000000     0.000001     1.000000     0.000000     0.000000     0.000000     0.000000     0.000000
    2    -1.000000     0.000001     1.000000     0.000000     0.000000     0.000000     0.000000     0.000000
    3     1.000000   120.000000    -0.577350    -0.577350    -0.577350     0.000000     0.000000     0.000000
    4    -1.000000   120.000000    -0.577350    -0.577350    -0.577350     0.000000     0.000000     0.000000
    5     1.000000   120.000000     0.577350     0.577350     0.577350     0.000000     0.000000     0.000000
    6    -1.000000   120.000000     0.577350     0.577350     0.577350     0.000000     0.000000     0.000000
    7     1.000000    90.000000     0.000000     0.000000    -1.000000     0.000000     0.000000     0.000000
    8    -1.000000    90.000000     0.000000     0.000000    -1.000000     0.000000     0.000000     0.000000
    9     1.000000   180.000000     0.000000     0.707107     0.707107     0.000000     0.000000     0.000000
   10    -1.000000   180.000000     0.000000     0.707107     0.707107     0.000000     0.000000     0.000000
   11     1.000000    90.000000     0.000000     1.000000     0.000000     0.000000     0.000000     0.000000
   12    -1.000000    90.000000     0.000000     1.000000     0.000000     0.000000     0.000000     0.000000
   13     1.000000   180.000000     0.000000     0.000000     1.000000     0.000000     0.000000     0.000000
   14    -1.000000   180.000000     0.000000     0.000000     1.000000     0.000000     0.000000     0.000000
   15     1.000000   120.000000    -0.577350     0.577350     0.577350     0.000000     0.000000     0.000000
   16    -1.000000   120.000000    -0.577350     0.577350     0.577350     0.000000     0.000000     0.000000
   17     1.000000   120.000000    -0.577350     0.577350    -0.577350     0.000000     0.000000     0.000000
   18    -1.000000   120.000000    -0.577350     0.577350    -0.577350     0.000000     0.000000     0.000000
   19     1.000000    90.000000     0.000000     0.000000     1.000000     0.000000     0.000000     0.000000
   20    -1.000000    90.000000     0.000000     0.000000     1.000000     0.000000     0.000000     0.000000
   21     1.000000    90.000000    -1.000000     0.000000     0.000000     0.000000     0.000000     0.000000
   22    -1.000000    90.000000    -1.000000     0.000000     0.000000     0.000000     0.000000     0.000000
   23     1.000000   180.000000     0.707107     0.000000     0.707107     0.000000     0.000000     0.000000
   24    -1.000000   180.000000     0.707107     0.000000     0.707107     0.000000     0.000000     0.000000
   25     1.000000   120.000000     0.577350    -0.577350     0.577350     0.000000     0.000000     0.000000
   26    -1.000000   120.000000     0.577350    -0.577350     0.577350     0.000000     0.000000     0.000000
   27     1.000000   120.000000    -0.577350    -0.577350     0.577350     0.000000     0.000000     0.000000
   28    -1.000000   120.000000    -0.577350    -0.577350     0.577350     0.000000     0.000000     0.000000
   29     1.000000   180.000000     1.000000     0.000000     0.000000     0.000000     0.000000     0.000000
   30    -1.000000   180.000000     1.000000     0.000000     0.000000     0.000000     0.000000     0.000000
   31     1.000000    90.000000     0.000000    -1.000000     0.000000     0.000000     0.000000     0.000000
   32    -1.000000    90.000000     0.000000    -1.000000     0.000000     0.000000     0.000000     0.000000
   33     1.000000   180.000000     0.707107     0.707107     0.000000     0.000000     0.000000     0.000000
   34    -1.000000   180.000000     0.707107     0.707107     0.000000     0.000000     0.000000     0.000000
   35     1.000000    90.000000     1.000000     0.000000     0.000000     0.000000     0.000000     0.000000
   36    -1.000000    90.000000     1.000000     0.000000     0.000000     0.000000     0.000000     0.000000
   37     1.000000   120.000000     0.577350    -0.577350    -0.577350     0.000000     0.000000     0.000000
   38    -1.000000   120.000000     0.577350    -0.577350    -0.577350     0.000000     0.000000     0.000000
   39     1.000000   180.000000     0.000000     1.000000     0.000000     0.000000     0.000000     0.000000
   40    -1.000000   180.000000     0.000000     1.000000     0.000000     0.000000     0.000000     0.000000
   41     1.000000   120.000000     0.577350     0.577350    -0.577350     0.000000     0.000000     0.000000
   42    -1.000000   120.000000     0.577350     0.577350    -0.577350     0.000000     0.000000     0.000000
   43     1.000000   180.000000     0.000000    -0.707107     0.707107     0.000000     0.000000     0.000000
   44    -1.000000   180.000000     0.000000    -0.707107     0.707107     0.000000     0.000000     0.000000
   45     1.000000   180.000000     0.707107    -0.707107     0.000000     0.000000     0.000000     0.000000
   46    -1.000000   180.000000     0.707107    -0.707107     0.000000     0.000000     0.000000     0.000000
   47     1.000000   180.000000     0.707107     0.000000    -0.707107     0.000000     0.000000     0.000000
   48    -1.000000   180.000000     0.707107     0.000000    -0.707107     0.000000     0.000000     0.000000
 
 Subroutine IBZKPT returns following result:
 ===========================================
 
 Found      4 irreducible k-points:
 
 Following reciprocal coordinates:
            Coordinates               Weight
  0.000000  0.000000  0.000000      1.000000
  0.333333  0.000000  0.000000      8.000000
  0.333333  0.333333  0.000000      6.000000
 -0.333333  0.333333  0.000000     12.000000
 
 Following cartesian coordinates:
            Coordinates               Weight
  0.000000  0.000000  0.000000      1.000000
 -0.024001  0.024001  0.024001      8.000000
  0.000000  0.000000  0.048001      6.000000
  0.048001 -0.048001  0.000000     12.000000
 
 
 Subroutine IBZKPT_HF returns following result:
 ==============================================
 
 Found     27 k-points in 1st BZ
 the following     27 k-points will be used (e.g. in the exchange kernel)
 Following reciprocal coordinates:   # in IRBZ
  0.000000  0.000000  0.000000    0.03703704   1 t-inv F
  0.333333  0.000000  0.000000    0.03703704   2 t-inv F
  0.333333  0.333333  0.000000    0.03703704   3 t-inv F
 -0.333333  0.333333  0.000000    0.03703704   4 t-inv F
 -0.333333  0.000000  0.000000    0.03703704   2 t-inv F
  0.000000  0.333333  0.000000    0.03703704   2 t-inv F
  0.000000 -0.333333  0.000000    0.03703704   2 t-inv F
  0.000000  0.000000  0.333333    0.03703704   2 t-inv F
  0.000000  0.000000 -0.333333    0.03703704   2 t-inv F
  0.333333  0.333333  0.333333    0.03703704   2 t-inv F
 -0.333333 -0.333333 -0.333333    0.03703704   2 t-inv F
 -0.333333 -0.333333  0.000000    0.03703704   3 t-inv F
  0.000000  0.333333  0.333333    0.03703704   3 t-inv F
  0.000000 -0.333333 -0.333333    0.03703704   3 t-inv F
  0.333333  0.000000  0.333333    0.03703704   3 t-inv F
 -0.333333  0.000000 -0.333333    0.03703704   3 t-inv F
  0.333333 -0.333333  0.000000    0.03703704   4 t-inv F
  0.000000 -0.333333  0.333333    0.03703704   4 t-inv F
  0.000000  0.333333 -0.333333    0.03703704   4 t-inv F
  0.333333  0.000000 -0.333333    0.03703704   4 t-inv F
 -0.333333  0.000000  0.333333    0.03703704   4 t-inv F
  0.333333  0.333333  0.666667    0.03703704   4 t-inv F
 -0.333333 -0.333333 -0.666667    0.03703704   4 t-inv F
 -0.333333 -0.666667 -0.333333    0.03703704   4 t-inv F
  0.333333  0.666667  0.333333    0.03703704   4 t-inv F
 -0.666667 -0.333333 -0.333333    0.03703704   4 t-inv F
  0.666667  0.333333  0.333333    0.03703704   4 t-inv F


--------------------------------------------------------------------------------------------------------




 Dimension of arrays:
   k-points           NKPTS =      4   k-points in BZ     NKDIM =      4   number of bands    NBANDS=    648
   number of dos      NEDOS =    301   number of ions     NIONS =     64
   non local maximal  LDIM  =      6   non local SUM 2l+1 LMDIM =     18
   total plane-waves  NPLWV = 343000
   max r-space proj   IRMAX =      1   max aug-charges    IRDMAX=   7319
   dimension x,y,z NGX =    70 NGY =   70 NGZ =   70
   dimension x,y,z NGXF=   120 NGYF=  120 NGZF=  120
   support grid    NGXF=   120 NGYF=  120 NGZF=  120
   ions per type =              64
 NGX,Y,Z   is equivalent  to a cutoff of  11.85, 11.85, 11.85 a.u.
 NGXF,Y,Z  is equivalent  to a cutoff of  20.31, 20.31, 20.31 a.u.


 I would recommend the setting:
   dimension x,y,z NGX =    69 NGY =   69 NGZ =   69
 SYSTEM =  phonon of Zr bcc - omiga                
 POSCAR =  Supercell by Yi Wang                    

 Startparameter for this run:
   NWRITE =      0    write-flag & timer
   PREC   = h         normal or accurate (medium, high low for compatibility)
   ISTART =      0    job   : 0-new  1-cont  2-samecut
   ICHARG =      2    charge: 1-file 2-atom 10-const
   ISPIN  =      2    spin polarized calculation?
   LNONCOLLINEAR =      F non collinear calculations
   LSORBIT =      F    spin-orbit coupling
   INIWAV =      1    electr: 0-lowe 1-rand  2-diag
   LASPH  =      F    aspherical Exc in radial PAW
   METAGGA=      F    non-selfconsistent MetaGGA calc.

 Electronic Relaxation 1
   ENCUT  =  459.9 eV  33.80 Ry    5.81 a.u.  17.17 17.17 17.17*2*pi/ulx,y,z
   ENINI  =  459.9     initial cutoff
   ENAUG  =  703.4 eV  augmentation charge cutoff
   NELM   =     60;   NELMIN=  2; NELMDL= -5     # of ELM steps 
   EDIFF  = 0.1E-05   stopping-criterion for ELM
   LREAL  =      F    real-space projection
   NLSPLINE    = F    spline interpolate recip. space projectors
   LCOMPAT=      F    compatible to vasp.4.4
   GGA_COMPAT  = T    GGA compatible to vasp.4.4-vasp.4.6
   LMAXPAW     = -100 max onsite density
   LMAXMIX     =    2 max onsite mixed and CHGCAR
   VOSKOWN=      0    Vosko Wilk Nusair interpolation
   ROPT   =    0.00000
 Ionic relaxation
   EDIFFG = 0.1E-04   stopping-criterion for IOM
   NSW    =      1    number of steps for IOM
   NBLOCK =      1;   KBLOCK =      1    inner block; outer block 
   IBRION =      8    ionic relax: 0-MD 1-quasi-New 2-CG
   NFREE  =      0    steps in history (QN), initial steepest desc. (CG)
   ISIF   =      2    stress and relaxation
   IWAVPR =     11    prediction:  0-non 1-charg 2-wave 3-comb
   ISYM   =      2    0-nonsym 1-usesym 2-fastsym
   LCORR  =      T    Harris-Foulkes like correction to forces

   POTIM  = 0.5000    time-step for ionic-motion
   TEIN   =    0.0    initial temperature
   TEBEG  =    0.0;   TEEND  =   0.0 temperature during run
   SMASS  =  -3.00    Nose mass-parameter (am)
   estimated Nose-frequenzy (Omega)   =  0.10E-29 period in steps =****** mass=  -0.220E-26a.u.
   SCALEE = 1.0000    scale energy and forces
   NPACO  =    256;   APACO  = 16.0  distance and # of slots for P.C.
   PSTRESS=    0.0 pullay stress

  Mass of Ions in am
   POMASS =  58.69
  Ionic Valenz
   ZVAL   =  16.00
  Atomic Wigner-Seitz radii
   RWIGS  =  -1.00
  virtual crystal weights 
   VCA    =   1.00
   NELECT =    1024.0000    total number of electrons
   NUPDOWN=      -1.0000    fix difference up-down

 DOS related values:
   EMIN   =  10.00;   EMAX   =-10.00  energy-range for DOS
   EFERMI =   0.00
   ISMEAR =     1;   SIGMA  =   0.20  broadening in eV -4-tet -1-fermi 0-gaus

 Electronic relaxation 2 (details)
   IALGO  =     38    algorithm
   LDIAG  =      T    sub-space diagonalisation (order eigenvalues)
   LSUBROT=      F    optimize rotation matrix (better conditioning)
   TURBO    =      0    0=normal 1=particle mesh
   IRESTART =      0    0=no restart 2=restart with 2 vectors
   NREBOOT  =      0    no. of reboots
   NMIN     =      0    reboot dimension
   EREF     =   0.00    reference energy to select bands
   IMIX   =      4    mixing-type and parameters
     AMIX     =   0.40;   BMIX     =  1.00
     AMIX_MAG =   1.60;   BMIX_MAG =  1.00
     AMIN     =   0.10
     WC   =   100.;   INIMIX=   1;  MIXPRE=   1;  MAXMIX= -45

 Intra band minimization:
   WEIMIN = 0.0010     energy-eigenvalue tresh-hold
   EBREAK =  0.39E-09  absolut break condition
   DEPER  =   0.30     relativ break condition  

   TIME   =   0.40     timestep for ELM

  volume/ion in A,a.u.               =      10.46        70.62
  Fermi-wavevector in a.u.,A,eV,Ry     =   1.885990  3.564005 48.395374  3.556960
  Thomas-Fermi vector in A             =   2.928354
 
 Write flags
   LWAVE  =      T    write WAVECAR
   LCHARG =      T    write CHGCAR
   LVTOT  =      F    write LOCPOT, total local potential
   LVHAR  =      F    write LOCPOT, Hartree potential only
   LELF   =      F    write electronic localiz. function (ELF)
   LORBIT =      0    0 simple, 1 ext, 2 COOP (PROOUT)


 Dipole corrections
   LMONO  =      F    monopole corrections only (constant potential shift)
   LDIPOL =      F    correct potential (dipole corrections)
   IDIPOL =      0    1-x, 2-y, 3-z, 4-all directions 
   EPSILON=  1.0000000 bulk dielectric constant

 Exchange correlation treatment:
   GGA     =    --    GGA type
   LEXCH   =     8    internal setting for exchange type
   VOSKOWN=      0    Vosko Wilk Nusair interpolation
   LHFCALC =     F    Hartree Fock is set to
   LHFONE  =     F    Hartree Fock one center treatment
   AEXX    =    0.0000 exact exchange contribution

 Linear response parameters
   LEPSILON=     F    determine dielectric tensor
   LRPA    =     F    only Hartree local field effects (RPA)
   LNABLA  =     F    use nabla operator in PAW spheres
   LVEL    =     F    velocity operator in full k-point grid
   LINTERFAST=   F  fast interpolation
   KINTER  =     0    interpolate to denser k-point grid
   CSHIFT  =0.1000    complex shift for real part using Kramers Kronig
   OMEGAMAX=  -1.0    maximum frequency
   DEG_THRESHOLD= 0.2000000E-02 threshold for treating states as degnerate
   RTIME   =    0.100 relaxation time in fs

 Orbital magnetization related:
   ORBITALMAG=     F  switch on orbital magnetization
   LCHIMAG   =     F  perturbation theory with respect to B field
   DQ        =  0.001000  dq finite difference perturbation B field



--------------------------------------------------------------------------------------------------------


 linear response using symmetry
 charge density and potential will be updated during run
 spin polarized calculation
 Variant of blocked Davidson
 Davidson routine will perform the subspace rotation
 perform sub-space diagonalisation
    after iterative eigenvector-optimisation
 modified Broyden-mixing scheme, WC =      100.0
 initial mixing is a Kerker type mixing with AMIX =  0.4000 and BMIX =      1.0000
 Hartree-type preconditioning will be used
 using additional bands          136
 reciprocal scheme for non local part
 use partial core corrections
 calculate Harris-corrections to forces 
   (improved forces if not selfconsistent)
 use gradient corrections 
 use of overlap-Matrix (Vanderbilt PP)
 Methfessel and Paxton  Order N= 1 SIGMA  =   0.20


--------------------------------------------------------------------------------------------------------


  energy-cutoff  :      459.93
  volume of cell :      669.74
      direct lattice vectors                 reciprocal lattice vectors
     0.000000000  6.944250000  6.944250000    -0.072002016  0.072002016  0.072002016
     6.944250000  0.000000000  6.944250000     0.072002016 -0.072002016  0.072002016
     6.944250000  6.944250000  0.000000000     0.072002016  0.072002016 -0.072002016

  length of vectors
     9.820652531  9.820652531  9.820652531     0.124711150  0.124711150  0.124711150


 
 k-points in units of 2pi/SCALE and weight: Zr 15x15x15                             
   0.00000000  0.00000000  0.00000000       0.037
  -0.02400067  0.02400067  0.02400067       0.296
   0.00000000  0.00000000  0.04800134       0.222
   0.04800134 -0.04800134  0.00000000       0.444
 
 k-points in reciprocal lattice and weights: Zr 15x15x15                             
   0.00000000  0.00000000  0.00000000       0.037
   0.33333333  0.00000000  0.00000000       0.296
   0.33333333  0.33333333  0.00000000       0.222
  -0.33333333  0.33333333  0.00000000       0.444
 
 position of ions in fractional coordinates (direct lattice) 
   0.00000000  0.00000000  0.00000000
   0.00000000  0.00000000  0.25000000
   0.00000000  0.00000000  0.50000000
   0.00000000  0.00000000  0.75000000
   0.00000000  0.25000000  0.00000000
   0.00000000  0.25000000  0.25000000
   0.00000000  0.25000000  0.50000000
   0.00000000  0.25000000  0.75000000
   0.00000000  0.50000000  0.00000000
   0.00000000  0.50000000  0.25000000
   0.00000000  0.50000000  0.50000000
   0.00000000  0.50000000  0.75000000
   0.00000000  0.75000000  0.00000000
   0.00000000  0.75000000  0.25000000
   0.00000000  0.75000000  0.50000000
   0.00000000  0.75000000  0.75000000
   0.25000000  0.00000000  0.00000000
   0.25000000  0.00000000  0.25000000
   0.25000000  0.00000000  0.50000000
   0.25000000  0.00000000  0.75000000
   0.25000000  0.25000000  0.00000000
   0.25000000  0.25000000  0.25000000
   0.25000000  0.25000000  0.50000000
   0.25000000  0.25000000  0.75000000
   0.25000000  0.50000000  0.00000000
   0.25000000  0.50000000  0.25000000
   0.25000000  0.50000000  0.50000000
   0.25000000  0.50000000  0.75000000
   0.25000000  0.75000000  0.00000000
   0.25000000  0.75000000  0.25000000
   0.25000000  0.75000000  0.50000000
   0.25000000  0.75000000  0.75000000
   0.50000000  0.00000000  0.00000000
   0.50000000  0.00000000  0.25000000
   0.50000000  0.00000000  0.50000000
   0.50000000  0.00000000  0.75000000
   0.50000000  0.25000000  0.00000000
   0.50000000  0.25000000  0.25000000
   0.50000000  0.25000000  0.50000000
   0.50000000  0.25000000  0.75000000
   0.50000000  0.50000000  0.00000000
   0.50000000  0.50000000  0.25000000
   0.50000000  0.50000000  0.50000000
   0.50000000  0.50000000  0.75000000
   0.50000000  0.75000000  0.00000000
   0.50000000  0.75000000  0.25000000
   0.50000000  0.75000000  0.50000000
   0.50000000  0.75000000  0.75000000
   0.75000000  0.00000000  0.00000000
   0.75000000  0.00000000  0.25000000
   0.75000000  0.00000000  0.50000000
   0.75000000  0.00000000  0.75000000
   0.75000000  0.25000000  0.00000000
   0.75000000  0.25000000  0.25000000
   0.75000000  0.25000000  0.50000000
   0.75000000  0.25000000  0.75000000
   0.75000000  0.50000000  0.00000000
   0.75000000  0.50000000  0.25000000
   0.75000000  0.50000000  0.50000000
   0.75000000  0.50000000  0.75000000
   0.75000000  0.75000000  0.00000000
   0.75000000  0.75000000  0.25000000
   0.75000000  0.75000000  0.50000000
   0.75000000  0.75000000  0.75000000
 
 position of ions in cartesian coordinates  (Angst):
   0.00000000  0.00000000  0.00000000
   1.73606250  1.73606250  0.00000000
   3.47212500  3.47212500  0.00000000
   5.20818750  5.20818750  0.00000000
   1.73606250  0.00000000  1.73606250
   3.47212500  1.73606250  1.73606250
   5.20818750  3.47212500  1.73606250
   6.94425000  5.20818750  1.73606250
   3.47212500  0.00000000  3.47212500
   5.20818750  1.73606250  3.47212500
   6.94425000  3.47212500  3.47212500
   8.68031250  5.20818750  3.47212500
   5.20818750  0.00000000  5.20818750
   6.94425000  1.73606250  5.20818750
   8.68031250  3.47212500  5.20818750
  10.41637500  5.20818750  5.20818750
   0.00000000  1.73606250  1.73606250
   1.73606250  3.47212500  1.73606250
   3.47212500  5.20818750  1.73606250
   5.20818750  6.94425000  1.73606250
   1.73606250  1.73606250  3.47212500
   3.47212500  3.47212500  3.47212500
   5.20818750  5.20818750  3.47212500
   6.94425000  6.94425000  3.47212500
   3.47212500  1.73606250  5.20818750
   5.20818750  3.47212500  5.20818750
   6.94425000  5.20818750  5.20818750
   8.68031250  6.94425000  5.20818750
   5.20818750  1.73606250  6.94425000
   6.94425000  3.47212500  6.94425000
   8.68031250  5.20818750  6.94425000
  10.41637500  6.94425000  6.94425000
   0.00000000  3.47212500  3.47212500
   1.73606250  5.20818750  3.47212500
   3.47212500  6.94425000  3.47212500
   5.20818750  8.68031250  3.47212500
   1.73606250  3.47212500  5.20818750
   3.47212500  5.20818750  5.20818750
   5.20818750  6.94425000  5.20818750
   6.94425000  8.68031250  5.20818750
   3.47212500  3.47212500  6.94425000
   5.20818750  5.20818750  6.94425000
   6.94425000  6.94425000  6.94425000
   8.68031250  8.68031250  6.94425000
   5.20818750  3.47212500  8.68031250
   6.94425000  5.20818750  8.68031250
   8.68031250  6.94425000  8.68031250
  10.41637500  8.68031250  8.68031250
   0.00000000  5.20818750  5.20818750
   1.73606250  6.94425000  5.20818750
   3.47212500  8.68031250  5.20818750
   5.20818750 10.41637500  5.20818750
   1.73606250  5.20818750  6.94425000
   3.47212500  6.94425000  6.94425000
   5.20818750  8.68031250  6.94425000
   6.94425000 10.41637500  6.94425000
   3.47212500  5.20818750  8.68031250
   5.20818750  6.94425000  8.68031250
   6.94425000  8.68031250  8.68031250
   8.68031250 10.41637500  8.68031250
   5.20818750  5.20818750 10.41637500
   6.94425000  6.94425000 10.41637500
   8.68031250  8.68031250 10.41637500
  10.41637500 10.41637500 10.41637500
 


--------------------------------------------------------------------------------------------------------


 k-point  1 :   0.0000 0.0000 0.0000  plane waves:   15065
 k-point  2 :   0.3333 0.0000 0.0000  plane waves:   15016
 k-point  3 :   0.3333 0.3333 0.0000  plane waves:   14992
 k-point  4 :  -0.3333 0.3333 0.0000  plane waves:   15017

 maximum and minimum number of plane-waves per node :     15065    14992

 maximum number of plane-waves:     15065
 maximum index in each direction: 
   IXMAX=   17   IYMAX=   17   IZMAX=   17
   IXMIN=  -17   IYMIN=  -17   IZMIN=  -17

 NGX is ok and might be reduce to  70
 NGY is ok and might be reduce to  70
 NGZ is ok and might be reduce to  70

 serial   3D FFT for wavefunctions
 parallel 3D FFT for charge:
    minimum data exchange during FFTs selected (reduces bandwidth)


 total amount of memory used by VASP on root node   276643. kBytes
========================================================================

   base      :      30000. kBytes
   nonl-proj :      24115. kBytes
   fftplans  :       8978. kBytes
   grid      :      43350. kBytes
   one-center:       1990. kBytes
   wavefun   :     168210. kBytes
 
     INWAV:  cpu time    0.0010: real time    0.0000
 Broyden mixing: mesh for mixing (old mesh)
   NGX = 35   NGY = 35   NGZ = 35
  (NGX  =120   NGY  =120   NGZ  =120)
  gives a total of  42875 points

 initial charge density was supplied:
 charge density of overlapping atoms calculated
 number of electron    1024.0000000 magnetization      64.0000000
 keeping initial charge density in first step


--------------------------------------------------------------------------------------------------------


 Maximum index for augmentation-charges          889 (set IRDMAX)


--------------------------------------------------------------------------------------------------------


 First call to EWALD:  gamma=   0.203
 Maximum number of real-space cells 3x 3x 3
 Maximum number of reciprocal cells 3x 3x 3

 FEWALD executed in parallel
    FEWALD:  cpu time    0.0050: real time    0.0044


----------------------------------------- Iteration    1(   1)  ---------------------------------------


    POTLOK:  cpu time    0.2930: real time    0.2931
    SETDIJ:  cpu time    0.0490: real time    0.0481
     EDDAV:  cpu time  113.1208: real time  113.0295
       DOS:  cpu time    0.0030: real time    0.0021
    --------------------------------------------
      LOOP:  cpu time  113.4668: real time  113.3742

 eigenvalue-minimisations  : 11560
 total energy-change (2. order) : 0.1610676E+05  (-0.5924784E+05)
 number of electron    1024.0000000 magnetization      64.0000000
 augmentation part     1024.0000000 magnetization      64.0000000

 Free energy of the ion-electron system (eV)
  ---------------------------------------------------
  alpha Z        PSCENC =     10302.80525912
  Ewald energy   TEWEN  =   -155767.55935361
  -Hartree energ DENC   =    -60457.14383376
  -exchange      EXHF   =         0.00000000
  -V(xc)+E(xc)   XCENC  =      5728.73189127
  PAW double counting   =    172361.15642774  -181272.45834873
  entropy T*S    EENTRO =        -0.00441129
  eigenvalues    EBANDS =      1194.57601663
  atomic energy  EATOM  =    224016.65216645
  Solvation  Ediel_sol  =         0.00000000
  ---------------------------------------------------
  free energy    TOTEN  =     16106.75581382 eV

  energy without entropy =    16106.76022512  energy(sigma->0) =    16106.75728425


--------------------------------------------------------------------------------------------------------




----------------------------------------- Iteration    1(   2)  ---------------------------------------


     EDDAV:  cpu time  104.0852: real time  104.0060
       DOS:  cpu time    0.0020: real time    0.0022
    --------------------------------------------
      LOOP:  cpu time  104.0872: real time  104.0088

 eigenvalue-minimisations  : 10368
 total energy-change (2. order) :-0.1491305E+05  (-0.1446529E+05)
 number of electron    1024.0000000 magnetization      64.0000000
 augmentation part     1024.0000000 magnetization      64.0000000

 Free energy of the ion-electron system (eV)
  ---------------------------------------------------
  alpha Z        PSCENC =     10302.80525912
  Ewald energy   TEWEN  =   -155767.55935361
  -Hartree energ DENC   =    -60457.14383376
  -exchange      EXHF   =         0.00000000
  -V(xc)+E(xc)   XCENC  =      5728.73189127
  PAW double counting   =    172361.15642774  -181272.45834873
  entropy T*S    EENTRO =         0.00525887
  eigenvalues    EBANDS =    -13718.48339412
  atomic energy  EATOM  =    224016.65216645
  Solvation  Ediel_sol  =         0.00000000
  ---------------------------------------------------
  free energy    TOTEN  =      1193.70607324 eV

  energy without entropy =     1193.70081436  energy(sigma->0) =     1193.70432028


--------------------------------------------------------------------------------------------------------




----------------------------------------- Iteration    1(   3)  ---------------------------------------


     EDDAV:  cpu time  105.0000: real time  104.9148
       DOS:  cpu time    0.0030: real time    0.0023
    --------------------------------------------
      LOOP:  cpu time  105.0030: real time  104.9176

 eigenvalue-minimisations  : 10488
 total energy-change (2. order) :-0.1537199E+04  (-0.1290486E+04)
 number of electron    1024.0000000 magnetization      64.0000000
 augmentation part     1024.0000000 magnetization      64.0000000

 Free energy of the ion-electron system (eV)
  ---------------------------------------------------
  alpha Z        PSCENC =     10302.80525912
  Ewald energy   TEWEN  =   -155767.55935361
  -Hartree energ DENC   =    -60457.14383376
  -exchange      EXHF   =         0.00000000
  -V(xc)+E(xc)   XCENC  =      5728.73189127
  PAW double counting   =    172361.15642774  -181272.45834873
  entropy T*S    EENTRO =         0.07375461
  eigenvalues    EBANDS =    -15255.75117596
  atomic energy  EATOM  =    224016.65216645
  Solvation  Ediel_sol  =         0.00000000
  ---------------------------------------------------
  free energy    TOTEN  =      -343.49321287 eV

  energy without entropy =     -343.56696747  energy(sigma->0) =     -343.51779774


--------------------------------------------------------------------------------------------------------




----------------------------------------- Iteration    1(   4)  ---------------------------------------


     EDDAV:  cpu time  109.3924: real time  109.3040
       DOS:  cpu time    0.0030: real time    0.0023
    --------------------------------------------
      LOOP:  cpu time  109.3964: real time  109.3068

 eigenvalue-minimisations  : 11064
 total energy-change (2. order) :-0.8720931E+02  (-0.8469094E+02)
 number of electron    1024.0000000 magnetization      64.0000000
 augmentation part     1024.0000000 magnetization      64.0000000

 Free energy of the ion-electron system (eV)
  ---------------------------------------------------
  alpha Z        PSCENC =     10302.80525912
  Ewald energy   TEWEN  =   -155767.55935361
  -Hartree energ DENC   =    -60457.14383376
  -exchange      EXHF   =         0.00000000
  -V(xc)+E(xc)   XCENC  =      5728.73189127
  PAW double counting   =    172361.15642774  -181272.45834873
  entropy T*S    EENTRO =         0.13727437
  eigenvalues    EBANDS =    -15343.02401072
  atomic energy  EATOM  =    224016.65216645
  Solvation  Ediel_sol  =         0.00000000
  ---------------------------------------------------
  free energy    TOTEN  =      -430.70252786 eV

  energy without entropy =     -430.83980223  energy(sigma->0) =     -430.74828598


--------------------------------------------------------------------------------------------------------




----------------------------------------- Iteration    1(   5)  ---------------------------------------


     EDDAV:  cpu time  109.2904: real time  109.2059
       DOS:  cpu time    0.0020: real time    0.0022
    CHARGE:  cpu time    5.0882: real time    5.0849
    MIXING:  cpu time    0.0060: real time    0.0061
    --------------------------------------------
      LOOP:  cpu time  114.3876: real time  114.2998

 eigenvalue-minimisations  : 11056
 total energy-change (2. order) :-0.1442112E+01  (-0.1440241E+01)
 number of electron    1023.9995176 magnetization      57.6776871
 augmentation part      574.0670512 magnetization      46.1852611

 Broyden mixing:
  rms(total) = 0.67286E+01    rms(broyden)= 0.67269E+01
  rms(prec ) = 0.91939E+01
  weight for this iteration     100.00

 Free energy of the ion-electron system (eV)
  ---------------------------------------------------
  alpha Z        PSCENC =     10302.80525912
  Ewald energy   TEWEN  =   -155767.55935361
  -Hartree energ DENC   =    -60457.14383376
  -exchange      EXHF   =         0.00000000
  -V(xc)+E(xc)   XCENC  =      5728.73189127
  PAW double counting   =    172361.15642774  -181272.45834873
  entropy T*S    EENTRO =         0.13783084
  eigenvalues    EBANDS =    -15344.46667897
  atomic energy  EATOM  =    224016.65216645
  Solvation  Ediel_sol  =         0.00000000
  ---------------------------------------------------
  free energy    TOTEN  =      -432.14463964 eV

  energy without entropy =     -432.28247048  energy(sigma->0) =     -432.19058325


--------------------------------------------------------------------------------------------------------




----------------------------------------- Iteration    1(   6)  ---------------------------------------


    POTLOK:  cpu time    0.2800: real time    0.2793
    SETDIJ:  cpu time    0.0480: real time    0.0480
     EDDAV:  cpu time  108.0406: real time  107.9525
       DOS:  cpu time    0.0020: real time    0.0023
    CHARGE:  cpu time    4.9782: real time    4.9737
    MIXING:  cpu time    0.0070: real time    0.0068
    --------------------------------------------
      LOOP:  cpu time  113.3568: real time  113.2635

 eigenvalue-minimisations  : 10896
 total energy-change (2. order) : 0.3860563E+02  (-0.5588068E+02)
 number of electron    1023.9994716 magnetization      50.9750044
 augmentation part      627.0348811 magnetization      45.3836120

 Broyden mixing:
  rms(total) = 0.44709E+01    rms(broyden)= 0.44706E+01
  rms(prec ) = 0.56016E+01
  weight for this iteration     100.00

 eigenvalues of (default mixing * dielectric matrix)
  average eigenvalue GAMMA=   0.5837
  0.5837

 Free energy of the ion-electron system (eV)
  ---------------------------------------------------
  alpha Z        PSCENC =     10302.80525912
  Ewald energy   TEWEN  =   -155767.55935361
  -Hartree energ DENC   =    -57346.74596618
  -exchange      EXHF   =         0.00000000
  -V(xc)+E(xc)   XCENC  =      5608.30652705
  PAW double counting   =    168475.53241261  -177086.96060979
  entropy T*S    EENTRO =        -0.29946414
  eigenvalues    EBANDS =    -18595.26997908
  atomic energy  EATOM  =    224016.65216645
  Solvation  Ediel_sol  =         0.00000000
  ---------------------------------------------------
  free energy    TOTEN  =      -393.53900757 eV

  energy without entropy =     -393.23954343  energy(sigma->0) =     -393.43918619


--------------------------------------------------------------------------------------------------------




----------------------------------------- Iteration    1(   7)  ---------------------------------------


    POTLOK:  cpu time    0.2760: real time    0.2762
    SETDIJ:  cpu time    0.0480: real time    0.0480
     EDDAV:  cpu time  107.7396: real time  107.6523
       DOS:  cpu time    0.0020: real time    0.0023
    CHARGE:  cpu time    4.9972: real time    4.9932
    MIXING:  cpu time    0.0070: real time    0.0071
    --------------------------------------------
      LOOP:  cpu time  113.0728: real time  112.9799

 eigenvalue-minimisations  : 10856
 total energy-change (2. order) : 0.2406679E+02  (-0.1007640E+02)
 number of electron    1023.9994900 magnetization      44.6565383
 augmentation part      605.8557897 magnetization      36.8555193

 Broyden mixing:
  rms(total) = 0.60114E+00    rms(broyden)= 0.60090E+00
  rms(prec ) = 0.73518E+00
  weight for this iteration     100.00

 eigenvalues of (default mixing * dielectric matrix)
  average eigenvalue GAMMA=   0.8352
  1.0661  0.6043

 Free energy of the ion-electron system (eV)
  ---------------------------------------------------
  alpha Z        PSCENC =     10302.80525912
  Ewald energy   TEWEN  =   -155767.55935361
  -Hartree energ DENC   =    -58377.84323835
  -exchange      EXHF   =         0.00000000
  -V(xc)+E(xc)   XCENC  =      5647.38080224
  PAW double counting   =    170895.31521855  -179784.25774564
  entropy T*S    EENTRO =        -0.10611821
  eigenvalues    EBANDS =    -17301.85920965
  atomic energy  EATOM  =    224016.65216645
  Solvation  Ediel_sol  =         0.00000000
  ---------------------------------------------------
  free energy    TOTEN  =      -369.47221909 eV

  energy without entropy =     -369.36610088  energy(sigma->0) =     -369.43684635


--------------------------------------------------------------------------------------------------------




----------------------------------------- Iteration    1(   8)  ---------------------------------------


    POTLOK:  cpu time    0.2760: real time    0.2761
    SETDIJ:  cpu time    0.0490: real time    0.0481
     EDDAV:  cpu time  109.5114: real time  109.4249
       DOS:  cpu time    0.0030: real time    0.0024
    CHARGE:  cpu time    5.0202: real time    5.0164
    MIXING:  cpu time    0.0080: real time    0.0073
    --------------------------------------------
      LOOP:  cpu time  114.8675: real time  114.7759

 eigenvalue-minimisations  : 11080
 total energy-change (2. order) : 0.1108700E+00  (-0.1102452E+00)
 number of electron    1023.9994902 magnetization      41.5238512
 augmentation part      605.6462501 magnetization      35.0123935

 Broyden mixing:
  rms(total) = 0.27746E+00    rms(broyden)= 0.27744E+00
  rms(prec ) = 0.36954E+00
  weight for this iteration     100.00

 eigenvalues of (default mixing * dielectric matrix)
  average eigenvalue GAMMA=   1.1596
  0.6214  0.8753  1.9819

 Free energy of the ion-electron system (eV)
  ---------------------------------------------------
  alpha Z        PSCENC =     10302.80525912
  Ewald energy   TEWEN  =   -155767.55935361
  -Hartree energ DENC   =    -58227.16506907
  -exchange      EXHF   =         0.00000000
  -V(xc)+E(xc)   XCENC  =      5642.32161884
  PAW double counting   =    171751.93459437  -180753.86487982
  entropy T*S    EENTRO =        -0.15126438
  eigenvalues    EBANDS =    -17334.33442103
  atomic energy  EATOM  =    224016.65216645
  Solvation  Ediel_sol  =         0.00000000
  ---------------------------------------------------
  free energy    TOTEN  =      -369.36134913 eV

  energy without entropy =     -369.21008475  energy(sigma->0) =     -369.31092767


--------------------------------------------------------------------------------------------------------




----------------------------------------- Iteration    1(   9)  ---------------------------------------


    POTLOK:  cpu time    0.2760: real time    0.2764
    SETDIJ:  cpu time    0.0490: real time    0.0480
     EDDAV:  cpu time  117.1992: real time  117.1046
       DOS:  cpu time    0.0030: real time    0.0024
    CHARGE:  cpu time    5.0112: real time    5.0073
    MIXING:  cpu time    0.0080: real time    0.0077
    --------------------------------------------
      LOOP:  cpu time  122.5464: real time  122.4472

 eigenvalue-minimisations  : 12112
 total energy-change (2. order) : 0.1195398E+00  (-0.1521487E-01)
 number of electron    1023.9994896 magnetization      41.6501588
 augmentation part      606.3350507 magnetization      35.8691405

 Broyden mixing:
  rms(total) = 0.70563E-01    rms(broyden)= 0.70555E-01
  rms(prec ) = 0.72900E-01
  weight for this iteration     100.00

 eigenvalues of (default mixing * dielectric matrix)
  average eigenvalue GAMMA=   1.1097
  2.2287  0.9593  0.6253  0.6253

 Free energy of the ion-electron system (eV)
  ---------------------------------------------------
  alpha Z        PSCENC =     10302.80525912
  Ewald energy   TEWEN  =   -155767.55935361
  -Hartree energ DENC   =    -58092.88910751
  -exchange      EXHF   =         0.00000000
  -V(xc)+E(xc)   XCENC  =      5637.70293836
  PAW double counting   =    172328.16274184  -181396.20686319
  entropy T*S    EENTRO =        -0.17983646
  eigenvalues    EBANDS =    -17397.72975433
  atomic energy  EATOM  =    224016.65216645
  Solvation  Ediel_sol  =         0.00000000
  ---------------------------------------------------
  free energy    TOTEN  =      -369.24180933 eV

  energy without entropy =     -369.06197288  energy(sigma->0) =     -369.18186385


--------------------------------------------------------------------------------------------------------




----------------------------------------- Iteration    1(  10)  ---------------------------------------


    POTLOK:  cpu time    0.2760: real time    0.2763
    SETDIJ:  cpu time    0.0490: real time    0.0482
     EDDAV:  cpu time  111.2491: real time  111.1583
       DOS:  cpu time    0.0020: real time    0.0022
    CHARGE:  cpu time    5.0222: real time    5.0173
    MIXING:  cpu time    0.0080: real time    0.0084
    --------------------------------------------
      LOOP:  cpu time  116.6063: real time  116.5116

 eigenvalue-minimisations  : 11320
 total energy-change (2. order) :-0.3716376E-02  (-0.1089319E-02)
 number of electron    1023.9994896 magnetization      42.0990049
 augmentation part      606.3361277 magnetization      36.2710272

 Broyden mixing:
  rms(total) = 0.25442E-01    rms(broyden)= 0.25439E-01
  rms(prec ) = 0.26542E-01
  weight for this iteration     100.00

 eigenvalues of (default mixing * dielectric matrix)
  average eigenvalue GAMMA=   1.2414
  2.3053  1.6455  1.0141  0.6211  0.6211

 Free energy of the ion-electron system (eV)
  ---------------------------------------------------
  alpha Z        PSCENC =     10302.80525912
  Ewald energy   TEWEN  =   -155767.55935361
  -Hartree energ DENC   =    -58085.05944722
  -exchange      EXHF   =         0.00000000
  -V(xc)+E(xc)   XCENC  =      5637.47516280
  PAW double counting   =    172430.16285467  -181503.39501236
  entropy T*S    EENTRO =        -0.17990939
  eigenvalues    EBANDS =    -17400.14724616
  atomic energy  EATOM  =    224016.65216645
  Solvation  Ediel_sol  =         0.00000000
  ---------------------------------------------------
  free energy    TOTEN  =      -369.24552571 eV

  energy without entropy =     -369.06561632  energy(sigma->0) =     -369.18555591


--------------------------------------------------------------------------------------------------------




----------------------------------------- Iteration    1(  11)  ---------------------------------------


    POTLOK:  cpu time    0.2760: real time    0.2760
    SETDIJ:  cpu time    0.0480: real time    0.0481
     EDDAV:  cpu time  109.5273: real time  109.4420
       DOS:  cpu time    0.0020: real time    0.0023
    CHARGE:  cpu time    5.0112: real time    5.0066
    MIXING:  cpu time    0.0090: real time    0.0087
    --------------------------------------------
      LOOP:  cpu time  114.8745: real time  114.7845

 eigenvalue-minimisations  : 11104
 total energy-change (2. order) :-0.2126650E-02  (-0.3415781E-03)
 number of electron    1023.9994896 magnetization      42.1010798
 augmentation part      606.2799055 magnetization      36.1639185

 Broyden mixing:
  rms(total) = 0.87309E-02    rms(broyden)= 0.87280E-02
  rms(prec ) = 0.10816E-01
  weight for this iteration     100.00

 eigenvalues of (default mixing * dielectric matrix)
  average eigenvalue GAMMA=   1.1815
  2.3787  1.7513  1.0080  0.6697  0.6697  0.6115

 Free energy of the ion-electron system (eV)
  ---------------------------------------------------
  alpha Z        PSCENC =     10302.80525912
  Ewald energy   TEWEN  =   -155767.55935361
  -Hartree energ DENC   =    -58086.70730585
  -exchange      EXHF   =         0.00000000
  -V(xc)+E(xc)   XCENC  =      5637.52977025
  PAW double counting   =    172541.55234217  -181615.69783255
  entropy T*S    EENTRO =        -0.17878671
  eigenvalues    EBANDS =    -17397.64391163
  atomic energy  EATOM  =    224016.65216645
  Solvation  Ediel_sol  =         0.00000000
  ---------------------------------------------------
  free energy    TOTEN  =      -369.24765236 eV

  energy without entropy =     -369.06886565  energy(sigma->0) =     -369.18805679


--------------------------------------------------------------------------------------------------------




----------------------------------------- Iteration    1(  12)  ---------------------------------------


    POTLOK:  cpu time    0.2770: real time    0.2763
    SETDIJ:  cpu time    0.0480: real time    0.0481
     EDDAV:  cpu time  107.8966: real time  107.8082
       DOS:  cpu time    0.0020: real time    0.0024
    CHARGE:  cpu time    5.0232: real time    5.0184
    MIXING:  cpu time    0.0090: real time    0.0092
    --------------------------------------------
      LOOP:  cpu time  113.2558: real time  113.1633

 eigenvalue-minimisations  : 10888
 total energy-change (2. order) :-0.5179516E-04  (-0.4055375E-04)
 number of electron    1023.9994896 magnetization      42.0860677
 augmentation part      606.3136426 magnetization      36.1500348

 Broyden mixing:
  rms(total) = 0.27759E-02    rms(broyden)= 0.27743E-02
  rms(prec ) = 0.29724E-02
  weight for this iteration     100.00

 eigenvalues of (default mixing * dielectric matrix)
  average eigenvalue GAMMA=   1.1969
  2.4366  1.7440  1.3045  0.9606  0.6787  0.6388  0.6152

 Free energy of the ion-electron system (eV)
  ---------------------------------------------------
  alpha Z        PSCENC =     10302.80525912
  Ewald energy   TEWEN  =   -155767.55935361
  -Hartree energ DENC   =    -58084.32090265
  -exchange      EXHF   =         0.00000000
  -V(xc)+E(xc)   XCENC  =      5637.43898638
  PAW double counting   =    172565.66953035  -181639.84447041
  entropy T*S    EENTRO =        -0.17986699
  eigenvalues    EBANDS =    -17399.90905279
  atomic energy  EATOM  =    224016.65216645
  Solvation  Ediel_sol  =         0.00000000
  ---------------------------------------------------
  free energy    TOTEN  =      -369.24770415 eV

  energy without entropy =     -369.06783717  energy(sigma->0) =     -369.18774849


--------------------------------------------------------------------------------------------------------




----------------------------------------- Iteration    1(  13)  ---------------------------------------


    POTLOK:  cpu time    0.2760: real time    0.2761
    SETDIJ:  cpu time    0.0480: real time    0.0480
     EDDAV:  cpu time  103.5773: real time  103.4932
       DOS:  cpu time    0.0020: real time    0.0023
    CHARGE:  cpu time    5.0222: real time    5.0177
    MIXING:  cpu time    0.0100: real time    0.0098
    --------------------------------------------
      LOOP:  cpu time  108.9364: real time  108.8478

 eigenvalue-minimisations  : 10304
 total energy-change (2. order) :-0.5468610E-05  (-0.2096415E-05)
 number of electron    1023.9994896 magnetization      42.0731998
 augmentation part      606.3210759 magnetization      36.1389883

 Broyden mixing:
  rms(total) = 0.20096E-02    rms(broyden)= 0.20095E-02
  rms(prec ) = 0.26668E-02
  weight for this iteration     100.00

 eigenvalues of (default mixing * dielectric matrix)
  average eigenvalue GAMMA=   1.2639
  2.4476  1.9285  1.9285  1.0127  0.6214  0.6214  0.7757  0.7757

 Free energy of the ion-electron system (eV)
  ---------------------------------------------------
  alpha Z        PSCENC =     10302.80525912
  Ewald energy   TEWEN  =   -155767.55935361
  -Hartree energ DENC   =    -58084.16503738
  -exchange      EXHF   =         0.00000000
  -V(xc)+E(xc)   XCENC  =      5637.43050705
  PAW double counting   =    172578.75344152  -181652.60711700
  entropy T*S    EENTRO =        -0.18024059
  eigenvalues    EBANDS =    -17400.37733519
  atomic energy  EATOM  =    224016.65216645
  Solvation  Ediel_sol  =         0.00000000
  ---------------------------------------------------
  free energy    TOTEN  =      -369.24770962 eV

  energy without entropy =     -369.06746903  energy(sigma->0) =     -369.18762942


--------------------------------------------------------------------------------------------------------




----------------------------------------- Iteration    1(  14)  ---------------------------------------


    POTLOK:  cpu time    0.2760: real time    0.2762
    SETDIJ:  cpu time    0.0480: real time    0.0481
     EDDAV:  cpu time   95.1805: real time   95.1034
       DOS:  cpu time    0.0020: real time    0.0023
    CHARGE:  cpu time    5.0162: real time    5.0123
    MIXING:  cpu time    0.0110: real time    0.0103
    --------------------------------------------
      LOOP:  cpu time  100.5357: real time  100.4534

 eigenvalue-minimisations  :  9184
 total energy-change (2. order) : 0.2418159E-04  (-0.9618072E-06)
 number of electron    1023.9994896 magnetization      42.0715416
 augmentation part      606.3155429 magnetization      36.1385638

 Broyden mixing:
  rms(total) = 0.48540E-03    rms(broyden)= 0.48523E-03
  rms(prec ) = 0.60923E-03
  weight for this iteration     100.00

 eigenvalues of (default mixing * dielectric matrix)
  average eigenvalue GAMMA=   1.2766
  2.5312  2.4527  1.8475  1.0548  0.8514  0.8514  0.6247  0.6247  0.6506

 Free energy of the ion-electron system (eV)
  ---------------------------------------------------
  alpha Z        PSCENC =     10302.80525912
  Ewald energy   TEWEN  =   -155767.55935361
  -Hartree energ DENC   =    -58084.93173001
  -exchange      EXHF   =         0.00000000
  -V(xc)+E(xc)   XCENC  =      5637.45725505
  PAW double counting   =    172587.93301478  -181661.42974964
  entropy T*S    EENTRO =        -0.18035684
  eigenvalues    EBANDS =    -17399.99419074
  atomic energy  EATOM  =    224016.65216645
  Solvation  Ediel_sol  =         0.00000000
  ---------------------------------------------------
  free energy    TOTEN  =      -369.24768544 eV

  energy without entropy =     -369.06732860  energy(sigma->0) =     -369.18756649


--------------------------------------------------------------------------------------------------------




----------------------------------------- Iteration    1(  15)  ---------------------------------------


    POTLOK:  cpu time    0.2770: real time    0.2760
    SETDIJ:  cpu time    0.0480: real time    0.0480
     EDDAV:  cpu time   67.3968: real time   67.3423
       DOS:  cpu time    0.0020: real time    0.0023
    CHARGE:  cpu time    5.0002: real time    4.9957
    MIXING:  cpu time    0.0110: real time    0.0110
    --------------------------------------------
      LOOP:  cpu time   72.7359: real time   72.6774

 eigenvalue-minimisations  :  5472
 total energy-change (2. order) : 0.4830566E-05  (-0.8927080E-07)
 number of electron    1023.9994896 magnetization      42.0725457
 augmentation part      606.3138605 magnetization      36.1395161

 Broyden mixing:
  rms(total) = 0.12315E-03    rms(broyden)= 0.12306E-03
  rms(prec ) = 0.12385E-03
  weight for this iteration     100.00

 eigenvalues of (default mixing * dielectric matrix)
  average eigenvalue GAMMA=   1.2467
  2.6141  2.4443  1.7983  1.1759  0.9078  0.9078  0.7367  0.6242  0.6242  0.6337

 Free energy of the ion-electron system (eV)
  ---------------------------------------------------
  alpha Z        PSCENC =     10302.80525912
  Ewald energy   TEWEN  =   -155767.55935361
  -Hartree energ DENC   =    -58085.11105406
  -exchange      EXHF   =         0.00000000
  -V(xc)+E(xc)   XCENC  =      5637.46367194
  PAW double counting   =    172589.62841128  -181663.05778471
  entropy T*S    EENTRO =        -0.18033717
  eigenvalues    EBANDS =    -17399.88865985
  atomic energy  EATOM  =    224016.65216645
  Solvation  Ediel_sol  =         0.00000000
  ---------------------------------------------------
  free energy    TOTEN  =      -369.24768061 eV

  energy without entropy =     -369.06734344  energy(sigma->0) =     -369.18756822


--------------------------------------------------------------------------------------------------------




----------------------------------------- Iteration    1(  16)  ---------------------------------------


    POTLOK:  cpu time    0.2770: real time    0.2767
    SETDIJ:  cpu time    0.0480: real time    0.0481
     EDDAV:  cpu time   67.3778: real time   67.3297
       DOS:  cpu time    0.0020: real time    0.0024
    --------------------------------------------
      LOOP:  cpu time   67.7047: real time   67.6574

 eigenvalue-minimisations  :  5472
 total energy-change (2. order) :-0.1970329E-06  (-0.1515337E-07)
 number of electron    1023.9994896 magnetization      42.0725457
 augmentation part      606.3138605 magnetization      36.1395161

 Free energy of the ion-electron system (eV)
  ---------------------------------------------------
  alpha Z        PSCENC =     10302.80525912
  Ewald energy   TEWEN  =   -155767.55935361
  -Hartree energ DENC   =    -58085.11071190
  -exchange      EXHF   =         0.00000000
  -V(xc)+E(xc)   XCENC  =      5637.46387203
  PAW double counting   =    172589.55537329  -181662.98445267
  entropy T*S    EENTRO =        -0.18031516
  eigenvalues    EBANDS =    -17399.88951837
  atomic energy  EATOM  =    224016.65216645
  Solvation  Ediel_sol  =         0.00000000
  ---------------------------------------------------
  free energy    TOTEN  =      -369.24768081 eV

  energy without entropy =     -369.06736565  energy(sigma->0) =     -369.18757575


--------------------------------------------------------------------------------------------------------




 average (electrostatic) potential at core
  the test charge radii are     0.8614
  (the norm of the test charge is              1.0000)
       1 -78.9365       2 -78.9365       3 -78.9365       4 -78.9365       5 -78.9365
       6 -78.9365       7 -78.9365       8 -78.9365       9 -78.9365      10 -78.9365
      11 -78.9365      12 -78.9365      13 -78.9365      14 -78.9365      15 -78.9365
      16 -78.9365      17 -78.9365      18 -78.9365      19 -78.9365      20 -78.9365
      21 -78.9365      22 -78.9365      23 -78.9365      24 -78.9365      25 -78.9365
      26 -78.9365      27 -78.9365      28 -78.9365      29 -78.9365      30 -78.9365
      31 -78.9365      32 -78.9365      33 -78.9365      34 -78.9365      35 -78.9365
      36 -78.9365      37 -78.9365      38 -78.9365      39 -78.9365      40 -78.9365
      41 -78.9365      42 -78.9365      43 -78.9365      44 -78.9365      45 -78.9365
      46 -78.9365      47 -78.9365      48 -78.9365      49 -78.9365      50 -78.9365
      51 -78.9365      52 -78.9365      53 -78.9365      54 -78.9365      55 -78.9365
      56 -78.9365      57 -78.9365      58 -78.9365      59 -78.9365      60 -78.9365
      61 -78.9365      62 -78.9365      63 -78.9365      64 -78.9365
 
 
 
 E-fermi :   8.3843     XC(G=0): -14.0345     alpha+bet :-15.4723


 spin component 1

 k-point     1 :       0.0000    0.0000    0.0000
  band No.  band energies     occupation 
      1     -55.7783      1.00000
      2     -55.7783      1.00000
      3     -55.7783      1.00000
      4     -55.7783      1.00000
      5     -55.7646      1.00000
      6     -55.7646      1.00000
      7     -55.7646      1.00000
      8     -55.7359      1.00000
      9     -55.7359      1.00000
     10     -55.7359      1.00000
     11     -55.7359      1.00000
     12     -55.7359      1.00000
     13     -55.7359      1.00000
     14     -55.7359      1.00000
     15     -55.7359      1.00000
     16     -55.7359      1.00000
     17     -55.7359      1.00000
     18     -55.7359      1.00000
     19     -55.7359      1.00000
     20     -55.7359      1.00000
     21     -55.7359      1.00000
     22     -55.7359      1.00000
     23     -55.7359      1.00000
     24     -55.7359      1.00000
     25     -55.7359      1.00000
     26     -55.7359      1.00000
     27     -55.7359      1.00000
     28     -55.7359      1.00000
     29     -55.7359      1.00000
     30     -55.7359      1.00000
     31     -55.7359      1.00000
     32     -55.7074      1.00000
     33     -55.7074      1.00000
     34     -55.7074      1.00000
     35     -55.7074      1.00000
     36     -55.7074      1.00000
     37     -55.7074      1.00000
     38     -55.7073      1.00000
     39     -55.7073      1.00000
     40     -55.7073      1.00000
     41     -55.7073      1.00000
     42     -55.7073      1.00000
     43     -55.7073      1.00000
     44     -55.6932      1.00000
     45     -55.6932      1.00000
     46     -55.6932      1.00000
     47     -55.6932      1.00000
     48     -55.6932      1.00000
     49     -55.6932      1.00000
     50     -55.6932      1.00000
     51     -55.6932      1.00000
     52     -55.6932      1.00000
     53     -55.6932      1.00000
     54     -55.6932      1.00000
     55     -55.6932      1.00000
     56     -55.6539      1.00000
     57     -55.6539      1.00000
     58     -55.6539      1.00000
     59     -55.6539      1.00000
     60     -55.6539      1.00000
     61     -55.6539      1.00000
     62     -55.6539      1.00000
     63     -55.6539      1.00000
     64     -55.6486      1.00000
     65     -55.6486      1.00000
     66     -55.6486      1.00000
     67     -55.6486      1.00000
     68     -55.6486      1.00000
     69     -55.6486      1.00000
     70     -55.6341      1.00000
     71     -55.6341      1.00000
     72     -55.6341      1.00000
     73     -55.6341      1.00000
     74     -55.6341      1.00000
     75     -55.6341      1.00000
     76     -55.6341      1.00000
     77     -55.6341      1.00000
     78     -55.6341      1.00000
     79     -55.6341      1.00000
     80     -55.6341      1.00000
     81     -55.6341      1.00000
     82     -55.6287      1.00000
     83     -55.6287      1.00000
     84     -55.6287      1.00000
     85     -55.6287      1.00000
     86     -55.6287      1.00000
     87     -55.6287      1.00000
     88     -55.6287      1.00000
     89     -55.6287      1.00000
     90     -55.6287      1.00000
     91     -55.6287      1.00000
     92     -55.6287      1.00000
     93     -55.6287      1.00000
     94     -55.6287      1.00000
     95     -55.6287      1.00000
     96     -55.6287      1.00000
     97     -55.6287      1.00000
     98     -55.6287      1.00000
     99     -55.6287      1.00000
    100     -55.6287      1.00000
    101     -55.6287      1.00000
    102     -55.6287      1.00000
    103     -55.6287      1.00000
    104     -55.6287      1.00000
    105     -55.6287      1.00000
    106     -55.6231      1.00000
    107     -55.6231      1.00000
    108     -55.6231      1.00000
    109     -55.6231      1.00000
    110     -55.6231      1.00000
    111     -55.6231      1.00000
    112     -55.6212      1.00000
    113     -55.6212      1.00000
    114     -55.6212      1.00000
    115     -55.6212      1.00000
    116     -55.6212      1.00000
    117     -55.6212      1.00000
    118     -55.5925      1.00000
    119     -55.5925      1.00000
    120     -55.5925      1.00000
    121     -55.5925      1.00000
    122     -55.5925      1.00000
    123     -55.5925      1.00000
    124     -55.5925      1.00000
    125     -55.5925      1.00000
    126     -55.5925      1.00000
    127     -55.5925      1.00000
    128     -55.5925      1.00000
    129     -55.5925      1.00000
    130     -55.5925      1.00000
    131     -55.5925      1.00000
    132     -55.5925      1.00000
    133     -55.5925      1.00000
    134     -55.5925      1.00000
    135     -55.5925      1.00000
    136     -55.5925      1.00000
    137     -55.5925      1.00000
    138     -55.5925      1.00000
    139     -55.5925      1.00000
    140     -55.5925      1.00000
    141     -55.5925      1.00000
    142     -55.5747      1.00000
    143     -55.5747      1.00000
    144     -55.5747      1.00000
    145     -55.5747      1.00000
    146     -55.5747      1.00000
    147     -55.5747      1.00000
    148     -55.5747      1.00000
    149     -55.5747      1.00000
    150     -55.5747      1.00000
    151     -55.5747      1.00000
    152     -55.5747      1.00000
    153     -55.5747      1.00000
    154     -55.5640      1.00000
    155     -55.5640      1.00000
    156     -55.5640      1.00000
    157     -55.5640      1.00000
    158     -55.5640      1.00000
    159     -55.5640      1.00000
    160     -55.5639      1.00000
    161     -55.5639      1.00000
    162     -55.5639      1.00000
    163     -55.5639      1.00000
    164     -55.5639      1.00000
    165     -55.5639      1.00000
    166     -55.5639      1.00000
    167     -55.5639      1.00000
    168     -55.5639      1.00000
    169     -55.5638      1.00000
    170     -55.5638      1.00000
    171     -55.5638      1.00000
    172     -55.5638      1.00000
    173     -55.5638      1.00000
    174     -55.5461      1.00000
    175     -55.5461      1.00000
    176     -55.5461      1.00000
    177     -55.5461      1.00000
    178     -55.5461      1.00000
    179     -55.5461      1.00000
    180     -55.5460      1.00000
    181     -55.5460      1.00000
    182     -55.5460      1.00000
    183     -55.5460      1.00000
    184     -55.5460      1.00000
    185     -55.5460      1.00000
    186     -55.5460      1.00000
    187     -55.5460      1.00000
    188     -55.5460      1.00000
    189     -55.5460      1.00000
    190     -55.5283      1.00000
    191     -55.5282      1.00000
    192     -55.5282      1.00000
    193      -0.9645      1.00000
    194       1.3235      1.00000
    195       1.3235      1.00000
    196       1.3236      1.00000
    197       1.3236      1.00000
    198       1.3236      1.00000
    199       1.3236      1.00000
    200       1.3236      1.00000
    201       1.3236      1.00000
    202       1.9904      1.00000
    203       1.9904      1.00000
    204       1.9904      1.00000
    205       1.9904      1.00000
    206       1.9904      1.00000
    207       1.9904      1.00000
    208       3.2806      1.00000
    209       3.2807      1.00000
    210       3.2807      1.00000
    211       3.2807      1.00000
    212       3.4378      1.00000
    213       3.4378      1.00000
    214       3.4378      1.00000
    215       3.9285      1.00000
    216       3.9285      1.00000
    217       3.9285      1.00000
    218       3.9285      1.00000
    219       3.9285      1.00000
    220       3.9285      1.00000
    221       3.9285      1.00000
    222       3.9285      1.00000
    223       3.9285      1.00000
    224       3.9285      1.00000
    225       3.9285      1.00000
    226       3.9285      1.00000
    227       3.9373      1.00000
    228       3.9373      1.00000
    229       3.9373      1.00000
    230       4.0501      1.00000
    231       4.0501      1.00000
    232       4.0501      1.00000
    233       4.0501      1.00000
    234       4.0501      1.00000
    235       4.0501      1.00000
    236       4.0502      1.00000
    237       4.0502      1.00000
    238       4.0502      1.00000
    239       4.0502      1.00000
    240       4.0502      1.00000
    241       4.0502      1.00000
    242       4.0502      1.00000
    243       4.0502      1.00000
    244       4.0502      1.00000
    245       4.0502      1.00000
    246       4.0502      1.00000
    247       4.0502      1.00000
    248       4.0502      1.00000
    249       4.0502      1.00000
    250       4.0502      1.00000
    251       4.0502      1.00000
    252       4.0502      1.00000
    253       4.0502      1.00000
    254       4.3701      1.00000
    255       4.3701      1.00000
    256       4.3701      1.00000
    257       4.3701      1.00000
    258       4.3701      1.00000
    259       4.3701      1.00000
    260       4.7194      1.00000
    261       4.7194      1.00000
    262       4.7194      1.00000
    263       4.7194      1.00000
    264       4.7194      1.00000
    265       4.7194      1.00000
    266       4.7194      1.00000
    267       4.7194      1.00000
    268       4.7194      1.00000
    269       4.7194      1.00000
    270       4.7194      1.00000
    271       4.7194      1.00000
    272       4.7194      1.00000
    273       4.7194      1.00000
    274       4.7194      1.00000
    275       4.7194      1.00000
    276       4.7194      1.00000
    277       4.7194      1.00000
[...]
      3.472125  3.472125  3.472125     0.021924   -0.070885   -0.000004  
      5.208188  5.208188  3.472125     0.012529    0.037880    0.038710  
      6.944250  6.944250  3.472125     0.030311    0.101087   -0.143922  
      3.472125  1.736063  5.208188    -0.024485   -0.052624   -0.028802  
      5.208188  3.472125  5.208188     0.040636   -0.036595   -0.008309  
      6.944250  5.208188  5.208188     0.077371    0.127523   -0.071077  
      8.680312  6.944250  5.208188     0.012250    0.111494   -0.091570  
      5.208188  1.736063  6.944250    -0.043622   -0.017250    0.001826  
      6.944250  3.472125  6.944250     0.067629    0.054131   -0.079163  
      8.680312  5.208188  6.944250     0.021460    0.139014    0.020207  
     10.416375  6.944250  6.944250    -0.089791    0.067633    0.101197  
      0.000000  3.472125  3.472125     0.021012   -0.029924   -0.057174  
      1.736063  5.208188  3.472125     0.003229   -0.093130    0.125458  
      3.472125  6.944250  3.472125    -0.006166    0.015635    0.164172  
      5.208188  8.680312  3.472125     0.011616    0.078842   -0.018460  
      1.736063  3.472125  5.208188    -0.005981   -0.120650    0.013681  
      3.472125  5.208188  5.208188     0.059140   -0.104621    0.034174  
      5.208188  6.944250  5.208188     0.095875    0.059497   -0.028595  
      6.944250  8.680312  5.208188     0.030754    0.043469   -0.049088  
      3.472125  3.472125  6.944250     0.012731   -0.086359    0.005376  
      5.208188  5.208188  6.944250     0.123982   -0.014978   -0.075613  
      6.944250  6.944250  6.944250     0.077813    0.069905    0.023757  
      8.680312  8.680312  6.944250    -0.033438   -0.001477    0.104747  
      5.208188  3.472125  8.680312     0.039723    0.004367   -0.065478  
      6.944250  5.208188  8.680312     0.068071   -0.003487    0.015671  
      8.680312  6.944250  8.680312    -0.024228    0.026043    0.216524  
     10.416375  8.680312  8.680312    -0.052575    0.033897    0.135374  
      0.000000  5.208188  5.208188    -0.077371   -0.127523    0.071077  
      1.736063  6.944250  5.208188    -0.012250   -0.111494    0.091570  
      3.472125  8.680312  5.208188     0.024485    0.052624    0.028802  
      5.208188 10.416375  5.208188    -0.040636    0.036595    0.008309  
      1.736063  5.208188  6.944250    -0.021460   -0.139014   -0.020207  
      3.472125  6.944250  6.944250     0.089791   -0.067633   -0.101197  
      5.208188  8.680312  6.944250     0.043622    0.017250   -0.001826  
      6.944250 10.416375  6.944250    -0.067629   -0.054131    0.079163  
      3.472125  5.208188  8.680312     0.043382   -0.049371   -0.129994  
      5.208188  6.944250  8.680312     0.071730   -0.057225   -0.048845  
      6.944250  8.680312  8.680312    -0.020569   -0.027695    0.152008  
      8.680312 10.416375  8.680312    -0.048917   -0.019841    0.070859  
      5.208188  5.208188 10.416375    -0.012529   -0.037880   -0.038710  
      6.944250  6.944250 10.416375    -0.030311   -0.101087    0.143922  
      8.680312  8.680312 10.416375    -0.039707    0.007679    0.182636  
     10.416375 10.416375 10.416375    -0.021924    0.070885    0.000004  
 
 190 f  =    0.000002 THz     0.000011 2PiTHz    0.000059 cm-1     0.000007 meV
             X         Y         Z           dx          dy          dz
      0.000000  0.000000  0.000000    -0.124804   -0.006384   -0.002880  
      1.736063  1.736063  0.000000    -0.124804   -0.006384   -0.002880  
      3.472125  3.472125  0.000000    -0.124804   -0.006384   -0.002880  
      5.208188  5.208188  0.000000    -0.124804   -0.006384   -0.002880  
      1.736063  0.000000  1.736063    -0.124804   -0.006384   -0.002880  
      3.472125  1.736063  1.736063    -0.124804   -0.006384   -0.002880  
      5.208188  3.472125  1.736063    -0.124804   -0.006384   -0.002880  
      6.944250  5.208188  1.736063    -0.124804   -0.006384   -0.002880  
      3.472125  0.000000  3.472125    -0.124804   -0.006384   -0.002880  
      5.208188  1.736063  3.472125    -0.124804   -0.006384   -0.002880  
      6.944250  3.472125  3.472125    -0.124804   -0.006384   -0.002880  
      8.680312  5.208188  3.472125    -0.124804   -0.006384   -0.002880  
      5.208188  0.000000  5.208188    -0.124804   -0.006384   -0.002880  
      6.944250  1.736063  5.208188    -0.124804   -0.006384   -0.002880  
      8.680312  3.472125  5.208188    -0.124804   -0.006384   -0.002880  
     10.416375  5.208188  5.208188    -0.124804   -0.006384   -0.002880  
      0.000000  1.736063  1.736063    -0.124804   -0.006384   -0.002880  
      1.736063  3.472125  1.736063    -0.124804   -0.006384   -0.002880  
      3.472125  5.208188  1.736063    -0.124804   -0.006384   -0.002880  
      5.208188  6.944250  1.736063    -0.124804   -0.006384   -0.002880  
      1.736063  1.736063  3.472125    -0.124804   -0.006384   -0.002880  
      3.472125  3.472125  3.472125    -0.124804   -0.006384   -0.002880  
      5.208188  5.208188  3.472125    -0.124804   -0.006384   -0.002880  
      6.944250  6.944250  3.472125    -0.124804   -0.006384   -0.002880  
      3.472125  1.736063  5.208188    -0.124804   -0.006384   -0.002880  
      5.208188  3.472125  5.208188    -0.124804   -0.006384   -0.002880  
      6.944250  5.208188  5.208188    -0.124804   -0.006384   -0.002880  
      8.680312  6.944250  5.208188    -0.124804   -0.006384   -0.002880  
      5.208188  1.736063  6.944250    -0.124804   -0.006384   -0.002880  
      6.944250  3.472125  6.944250    -0.124804   -0.006384   -0.002880  
      8.680312  5.208188  6.944250    -0.124804   -0.006384   -0.002880  
     10.416375  6.944250  6.944250    -0.124804   -0.006384   -0.002880  
      0.000000  3.472125  3.472125    -0.124804   -0.006384   -0.002880  
      1.736063  5.208188  3.472125    -0.124804   -0.006384   -0.002880  
      3.472125  6.944250  3.472125    -0.124804   -0.006384   -0.002880  
      5.208188  8.680312  3.472125    -0.124804   -0.006384   -0.002880  
      1.736063  3.472125  5.208188    -0.124804   -0.006384   -0.002880  
      3.472125  5.208188  5.208188    -0.124804   -0.006384   -0.002880  
      5.208188  6.944250  5.208188    -0.124804   -0.006384   -0.002880  
      6.944250  8.680312  5.208188    -0.124804   -0.006384   -0.002880  
      3.472125  3.472125  6.944250    -0.124804   -0.006384   -0.002880  
      5.208188  5.208188  6.944250    -0.124804   -0.006384   -0.002880  
      6.944250  6.944250  6.944250    -0.124804   -0.006384   -0.002880  
      8.680312  8.680312  6.944250    -0.124804   -0.006384   -0.002880  
      5.208188  3.472125  8.680312    -0.124804   -0.006384   -0.002880  
      6.944250  5.208188  8.680312    -0.124804   -0.006384   -0.002880  
      8.680312  6.944250  8.680312    -0.124804   -0.006384   -0.002880  
     10.416375  8.680312  8.680312    -0.124804   -0.006384   -0.002880  
      0.000000  5.208188  5.208188    -0.124804   -0.006384   -0.002880  
      1.736063  6.944250  5.208188    -0.124804   -0.006384   -0.002880  
      3.472125  8.680312  5.208188    -0.124804   -0.006384   -0.002880  
      5.208188 10.416375  5.208188    -0.124804   -0.006384   -0.002880  
      1.736063  5.208188  6.944250    -0.124804   -0.006384   -0.002880  
      3.472125  6.944250  6.944250    -0.124804   -0.006384   -0.002880  
      5.208188  8.680312  6.944250    -0.124804   -0.006384   -0.002880  
      6.944250 10.416375  6.944250    -0.124804   -0.006384   -0.002880  
      3.472125  5.208188  8.680312    -0.124804   -0.006384   -0.002880  
      5.208188  6.944250  8.680312    -0.124804   -0.006384   -0.002880  
      6.944250  8.680312  8.680312    -0.124804   -0.006384   -0.002880  
      8.680312 10.416375  8.680312    -0.124804   -0.006384   -0.002880  
      5.208188  5.208188 10.416375    -0.124804   -0.006384   -0.002880  
      6.944250  6.944250 10.416375    -0.124804   -0.006384   -0.002880  
      8.680312  8.680312 10.416375    -0.124804   -0.006384   -0.002880  
     10.416375 10.416375 10.416375    -0.124804   -0.006384   -0.002880  
 
 191 f  =    0.000002 THz     0.000011 2PiTHz    0.000058 cm-1     0.000007 meV
             X         Y         Z           dx          dy          dz
      0.000000  0.000000  0.000000     0.002902   -0.000346   -0.124966  
      1.736063  1.736063  0.000000     0.002902   -0.000346   -0.124966  
      3.472125  3.472125  0.000000     0.002902   -0.000346   -0.124966  
      5.208188  5.208188  0.000000     0.002902   -0.000346   -0.124966  
      1.736063  0.000000  1.736063     0.002902   -0.000346   -0.124966  
      3.472125  1.736063  1.736063     0.002902   -0.000346   -0.124966  
      5.208188  3.472125  1.736063     0.002902   -0.000346   -0.124966  
      6.944250  5.208188  1.736063     0.002902   -0.000346   -0.124966  
      3.472125  0.000000  3.472125     0.002902   -0.000346   -0.124966  
      5.208188  1.736063  3.472125     0.002902   -0.000346   -0.124966  
      6.944250  3.472125  3.472125     0.002902   -0.000346   -0.124966  
      8.680312  5.208188  3.472125     0.002902   -0.000346   -0.124966  
      5.208188  0.000000  5.208188     0.002902   -0.000346   -0.124966  
      6.944250  1.736063  5.208188     0.002902   -0.000346   -0.124966  
      8.680312  3.472125  5.208188     0.002902   -0.000346   -0.124966  
     10.416375  5.208188  5.208188     0.002902   -0.000346   -0.124966  
      0.000000  1.736063  1.736063     0.002902   -0.000346   -0.124966  
      1.736063  3.472125  1.736063     0.002902   -0.000346   -0.124966  
      3.472125  5.208188  1.736063     0.002902   -0.000346   -0.124966  
      5.208188  6.944250  1.736063     0.002902   -0.000346   -0.124966  
      1.736063  1.736063  3.472125     0.002902   -0.000346   -0.124966  
      3.472125  3.472125  3.472125     0.002902   -0.000346   -0.124966  
      5.208188  5.208188  3.472125     0.002902   -0.000346   -0.124966  
      6.944250  6.944250  3.472125     0.002902   -0.000346   -0.124966  
      3.472125  1.736063  5.208188     0.002902   -0.000346   -0.124966  
      5.208188  3.472125  5.208188     0.002902   -0.000346   -0.124966  
      6.944250  5.208188  5.208188     0.002902   -0.000346   -0.124966  
      8.680312  6.944250  5.208188     0.002902   -0.000346   -0.124966  
      5.208188  1.736063  6.944250     0.002902   -0.000346   -0.124966  
      6.944250  3.472125  6.944250     0.002902   -0.000346   -0.124966  
      8.680312  5.208188  6.944250     0.002902   -0.000346   -0.124966  
     10.416375  6.944250  6.944250     0.002902   -0.000346   -0.124966  
      0.000000  3.472125  3.472125     0.002902   -0.000346   -0.124966  
      1.736063  5.208188  3.472125     0.002902   -0.000346   -0.124966  
      3.472125  6.944250  3.472125     0.002902   -0.000346   -0.124966  
      5.208188  8.680312  3.472125     0.002902   -0.000346   -0.124966  
      1.736063  3.472125  5.208188     0.002902   -0.000346   -0.124966  
      3.472125  5.208188  5.208188     0.002902   -0.000346   -0.124966  
      5.208188  6.944250  5.208188     0.002902   -0.000346   -0.124966  
      6.944250  8.680312  5.208188     0.002902   -0.000346   -0.124966  
      3.472125  3.472125  6.944250     0.002902   -0.000346   -0.124966  
      5.208188  5.208188  6.944250     0.002902   -0.000346   -0.124966  
      6.944250  6.944250  6.944250     0.002902   -0.000346   -0.124966  
      8.680312  8.680312  6.944250     0.002902   -0.000346   -0.124966  
      5.208188  3.472125  8.680312     0.002902   -0.000346   -0.124966  
      6.944250  5.208188  8.680312     0.002902   -0.000346   -0.124966  
      8.680312  6.944250  8.680312     0.002902   -0.000346   -0.124966  
     10.416375  8.680312  8.680312     0.002902   -0.000346   -0.124966  
      0.000000  5.208188  5.208188     0.002902   -0.000346   -0.124966  
      1.736063  6.944250  5.208188     0.002902   -0.000346   -0.124966  
      3.472125  8.680312  5.208188     0.002902   -0.000346   -0.124966  
      5.208188 10.416375  5.208188     0.002902   -0.000346   -0.124966  
      1.736063  5.208188  6.944250     0.002902   -0.000346   -0.124966  
      3.472125  6.944250  6.944250     0.002902   -0.000346   -0.124966  
      5.208188  8.680312  6.944250     0.002902   -0.000346   -0.124966  
      6.944250 10.416375  6.944250     0.002902   -0.000346   -0.124966  
      3.472125  5.208188  8.680312     0.002902   -0.000346   -0.124966  
      5.208188  6.944250  8.680312     0.002902   -0.000346   -0.124966  
      6.944250  8.680312  8.680312     0.002902   -0.000346   -0.124966  
      8.680312 10.416375  8.680312     0.002902   -0.000346   -0.124966  
      5.208188  5.208188 10.416375     0.002902   -0.000346   -0.124966  
      6.944250  6.944250 10.416375     0.002902   -0.000346   -0.124966  
      8.680312  8.680312 10.416375     0.002902   -0.000346   -0.124966  
     10.416375 10.416375 10.416375     0.002902   -0.000346   -0.124966  
 
 192 f  =    0.000002 THz     0.000011 2PiTHz    0.000058 cm-1     0.000007 meV
             X         Y         Z           dx          dy          dz
      0.000000  0.000000  0.000000    -0.006374    0.124836   -0.000494  
      1.736063  1.736063  0.000000    -0.006374    0.124836   -0.000494  
      3.472125  3.472125  0.000000    -0.006374    0.124836   -0.000494  
      5.208188  5.208188  0.000000    -0.006374    0.124836   -0.000494  
      1.736063  0.000000  1.736063    -0.006374    0.124836   -0.000494  
      3.472125  1.736063  1.736063    -0.006374    0.124836   -0.000494  
      5.208188  3.472125  1.736063    -0.006374    0.124836   -0.000494  
      6.944250  5.208188  1.736063    -0.006374    0.124836   -0.000494  
      3.472125  0.000000  3.472125    -0.006374    0.124836   -0.000494  
      5.208188  1.736063  3.472125    -0.006374    0.124836   -0.000494  
      6.944250  3.472125  3.472125    -0.006374    0.124836   -0.000494  
      8.680312  5.208188  3.472125    -0.006374    0.124836   -0.000494  
      5.208188  0.000000  5.208188    -0.006374    0.124836   -0.000494  
      6.944250  1.736063  5.208188    -0.006374    0.124836   -0.000494  
      8.680312  3.472125  5.208188    -0.006374    0.124836   -0.000494  
     10.416375  5.208188  5.208188    -0.006374    0.124836   -0.000494  
      0.000000  1.736063  1.736063    -0.006374    0.124836   -0.000494  
      1.736063  3.472125  1.736063    -0.006374    0.124836   -0.000494  
      3.472125  5.208188  1.736063    -0.006374    0.124836   -0.000494  
      5.208188  6.944250  1.736063    -0.006374    0.124836   -0.000494  
      1.736063  1.736063  3.472125    -0.006374    0.124836   -0.000494  
      3.472125  3.472125  3.472125    -0.006374    0.124836   -0.000494  
      5.208188  5.208188  3.472125    -0.006374    0.124836   -0.000494  
      6.944250  6.944250  3.472125    -0.006374    0.124836   -0.000494  
      3.472125  1.736063  5.208188    -0.006374    0.124836   -0.000494  
      5.208188  3.472125  5.208188    -0.006374    0.124836   -0.000494  
      6.944250  5.208188  5.208188    -0.006374    0.124836   -0.000494  
      8.680312  6.944250  5.208188    -0.006374    0.124836   -0.000494  
      5.208188  1.736063  6.944250    -0.006374    0.124836   -0.000494  
      6.944250  3.472125  6.944250    -0.006374    0.124836   -0.000494  
      8.680312  5.208188  6.944250    -0.006374    0.124836   -0.000494  
     10.416375  6.944250  6.944250    -0.006374    0.124836   -0.000494  
      0.000000  3.472125  3.472125    -0.006374    0.124836   -0.000494  
      1.736063  5.208188  3.472125    -0.006374    0.124836   -0.000494  
      3.472125  6.944250  3.472125    -0.006374    0.124836   -0.000494  
      5.208188  8.680312  3.472125    -0.006374    0.124836   -0.000494  
      1.736063  3.472125  5.208188    -0.006374    0.124836   -0.000494  
      3.472125  5.208188  5.208188    -0.006374    0.124836   -0.000494  
      5.208188  6.944250  5.208188    -0.006374    0.124836   -0.000494  
      6.944250  8.680312  5.208188    -0.006374    0.124836   -0.000494  
      3.472125  3.472125  6.944250    -0.006374    0.124836   -0.000494  
      5.208188  5.208188  6.944250    -0.006374    0.124836   -0.000494  
      6.944250  6.944250  6.944250    -0.006374    0.124836   -0.000494  
      8.680312  8.680312  6.944250    -0.006374    0.124836   -0.000494  
      5.208188  3.472125  8.680312    -0.006374    0.124836   -0.000494  
      6.944250  5.208188  8.680312    -0.006374    0.124836   -0.000494  
      8.680312  6.944250  8.680312    -0.006374    0.124836   -0.000494  
     10.416375  8.680312  8.680312    -0.006374    0.124836   -0.000494  
      0.000000  5.208188  5.208188    -0.006374    0.124836   -0.000494  
      1.736063  6.944250  5.208188    -0.006374    0.124836   -0.000494  
      3.472125  8.680312  5.208188    -0.006374    0.124836   -0.000494  
      5.208188 10.416375  5.208188    -0.006374    0.124836   -0.000494  
      1.736063  5.208188  6.944250    -0.006374    0.124836   -0.000494  
      3.472125  6.944250  6.944250    -0.006374    0.124836   -0.000494  
      5.208188  8.680312  6.944250    -0.006374    0.124836   -0.000494  
      6.944250 10.416375  6.944250    -0.006374    0.124836   -0.000494  
      3.472125  5.208188  8.680312    -0.006374    0.124836   -0.000494  
      5.208188  6.944250  8.680312    -0.006374    0.124836   -0.000494  
      6.944250  8.680312  8.680312    -0.006374    0.124836   -0.000494  
      8.680312 10.416375  8.680312    -0.006374    0.124836   -0.000494  
      5.208188  5.208188 10.416375    -0.006374    0.124836   -0.000494  
      6.944250  6.944250 10.416375    -0.006374    0.124836   -0.000494  
      8.680312  8.680312 10.416375    -0.006374    0.124836   -0.000494  
     10.416375 10.416375 10.416375    -0.006374    0.124836   -0.000494  
 


--------------------------------------------------------------------------------------------------------



 ELASTIC MODULI IONIC CONTR (kBar)
 Direction    XX          YY          ZZ          XY          YZ          ZX
 --------------------------------------------------------------------------------
 XX           0.0000     -0.0000      0.0000     -0.0000     -0.0000      0.0000
 YY          -0.0000      0.0000      0.0000     -0.0000      0.0000      0.0000
 ZZ           0.0000      0.0000      0.0000     -0.0000      0.0000      0.0000
 XY          -0.0000     -0.0000     -0.0000      0.0000     -0.0000     -0.0000
 YZ          -0.0000      0.0000     -0.0000     -0.0000      0.0000     -0.0000
 ZX           0.0000      0.0000      0.0000     -0.0000     -0.0000      0.0000
 --------------------------------------------------------------------------------



--------------------------------------------------------------------------------------------------------


 writing wavefunctions
     LOOP+:  cpu time 7003.3603: real time 6998.4581
    4ORBIT:  cpu time    0.0000: real time    0.0000

 total amount of memory used by VASP on root node   276643. kBytes
========================================================================

   base      :      30000. kBytes
   nonl-proj :      24115. kBytes
   fftplans  :       8978. kBytes
   grid      :      43350. kBytes
   one-center:       1990. kBytes
   wavefun   :     168210. kBytes
 
  
  
 General timing and accounting informations for this job:
 ========================================================
  
                  Total CPU time used (sec):     7025.226
                            User time (sec):     7007.133
                          System time (sec):       18.093
                         Elapsed time (sec):     7020.322
  
                   Maximum memory used (kb):     1017056.
                   Average memory used (kb):           0.
  
                          Minor page faults:       101434
                          Major page faults:            2
                 Voluntary context switches:          997
