<?xml version="1.0" encoding="ISO-8859-1"?>
<modeling>
 <generator>
  <i name="program" type="string">vasp </i>
  <i name="version" type="string">5.4.1  </i>
  <i name="subversion" type="string">05Feb16 (build Oct 12 2016 17:31:35) complex                          parallel </i>
  <i name="platform" type="string">IFC91_ompi </i>
  <i name="date" type="string">2020 09 08 </i>
  <i name="time" type="string">21:52:14 </i>
 </generator>
 <incar>
  <i type="string" name="SYSTEM"> phonon of Zr bcc - omiga</i>
  <i type="string" name="PREC">h</i>
  <i type="int" name="ISPIN">     2</i>
  <i type="int" name="IBRION">     8</i>
  <i name="EDIFF">      0.00000100</i>
  <i type="int" name="NSW">     1</i>
  <v name="MAGMOM">      1.00000000      1.00000000      1.00000000      1.00000000      1.00000000      1.00000000      1.00000000      1.00000000      1.00000000      1.00000000      1.00000000      1.00000000      1.00000000      1.00000000      1.00000000      1.00000000      1.00000000      1.00000000      1.00000000      1.00000000
      1.00000000      1.00000000      1.00000000      1.00000000      1.00000000      1.00000000      1.00000000      1.00000000      1.00000000      1.00000000      1.00000000      1.00000000      1.00000000      1.00000000      1.00000000      1.00000000      1.00000000      1.00000000      1.00000000      1.00000000
      1.00000000      1.00000000      1.00000000      1.00000000      1.00000000      1.00000000      1.00000000      1.00000000      1.00000000      1.00000000      1.00000000      1.00000000      1.00000000      1.00000000      1.00000000      1.00000000      1.00000000      1.00000000      1.00000000      1.00000000
      1.00000000      1.00000000      1.00000000      1.00000000</v>
  <i type="int" name="ISMEAR">     1</i>
  <i type="int" name="NWRITE">     0</i>
  <v type="int" name="KPOINT_BSE">    -1     0     0     0</v>
 </incar>
 <kpoints>
  <generation param="Gamma">
   <v type="int" name="divisions">       3        3        3 </v>
   <v name="usershift">      0.00000000       0.00000000       0.00000000 </v>
   <v name="genvec1">      0.33333333       0.00000000       0.00000000 </v>
   <v name="genvec2">      0.00000000       0.33333333       0.00000000 </v>
   <v name="genvec3">      0.00000000       0.00000000       0.33333333 </v>
   <v name="shift">      0.00000000       0.00000000       0.00000000 </v>
  </generation>
  <varray name="kpointlist" >
   <v>       0.00000000       0.00000000       0.00000000 </v>
   <v>       0.33333333       0.00000000       0.00000000 </v>
   <v>       0.33333333       0.33333333       0.00000000 </v>
   <v>      -0.33333333       0.33333333       0.00000000 </v>
  </varray>
  <varray name="weights" >
   <v>       0.03703704 </v>
   <v>       0.29629630 </v>
   <v>       0.22222222 </v>
   <v>       0.44444444 </v>
  </varray>
 </kpoints>
 <parameters>
  <separator name="general" >
   <i type="string" name="SYSTEM">phonon of Zr bcc - omiga</i>
   <i type="logical" name="LCOMPAT"> F  </i>
  </separator>
  <separator name="electronic" >
   <i type="string" name="PREC">h</i>
   <i name="ENMAX">    459.93125000</i>
   <i name="ENAUG">    703.44300000</i>
   <i name="EDIFF">      0.00000100</i>
   <i type="int" name="IALGO">    38</i>
   <i type="int" name="IWAVPR">    11</i>
   <i type="int" name="NBANDS">   648</i>
   <i name="NELECT">   1024.00000000</i>
   <i type="int" name="TURBO">     0</i>
   <i type="int" name="IRESTART">     0</i>
   <i type="int" name="NREBOOT">     0</i>
   <i type="int" name="NMIN">     0</i>
   <i name="EREF">      0.00000000</i>
   <separator name="electronic smearing" >
    <i type="int" name="ISMEAR">     1</i>
    <i name="SIGMA">      0.20000000</i>
    <i name="KSPACING">      0.50000000</i>
    <i type="logical" name="KGAMMA"> T  </i>
   </separator>
   <separator name="electronic projectors" >
    <i type="logical" name="LREAL"> F  </i>
    <v name="ROPT">      0.00000000</v>
    <i type="int" name="LMAXPAW">  -100</i>
    <i type="int" name="LMAXMIX">     2</i>
    <i type="logical" name="NLSPLINE"> F  </i>
   </separator>
   <separator name="electronic startup" >
    <i type="int" name="ISTART">     0</i>
    <i type="int" name="ICHARG">     2</i>
    <i type="int" name="INIWAV">     1</i>
   </separator>
   <separator name="electronic spin" >
    <i type="int" name="ISPIN">     2</i>
    <i type="logical" name="LNONCOLLINEAR"> F  </i>
    <v name="MAGMOM">      1.00000000      1.00000000      1.00000000      1.00000000      1.00000000      1.00000000      1.00000000      1.00000000      1.00000000      1.00000000      1.00000000      1.00000000      1.00000000      1.00000000      1.00000000      1.00000000      1.00000000      1.00000000      1.00000000      1.00000000
      1.00000000      1.00000000      1.00000000      1.00000000      1.00000000      1.00000000      1.00000000      1.00000000      1.00000000      1.00000000      1.00000000      1.00000000      1.00000000      1.00000000      1.00000000      1.00000000      1.00000000      1.00000000      1.00000000      1.00000000
      1.00000000      1.00000000      1.00000000      1.00000000      1.00000000      1.00000000      1.00000000      1.00000000      1.00000000      1.00000000      1.00000000      1.00000000      1.00000000      1.00000000      1.00000000      1.00000000      1.00000000      1.00000000      1.00000000      1.00000000
      1.00000000      1.00000000      1.00000000      1.00000000</v>
    <i name="NUPDOWN">     -1.00000000</i>
    <i type="logical" name="LSORBIT"> F  </i>
    <v name="SAXIS">      0.00000000      0.00000000      1.00000000</v>
    <i type="logical" name="LSPIRAL"> F  </i>
    <v name="QSPIRAL">      0.00000000      0.00000000      0.00000000</v>
    <i type="logical" name="LZEROZ"> F  </i>
   </separator>
   <separator name="electronic exchange-correlation" >
    <i type="logical" name="LASPH"> F  </i>
    <i type="logical" name="LMETAGGA"> F  </i>
   </separator>
   <separator name="electronic convergence" >
    <i type="int" name="NELM">    60</i>
    <i type="int" name="NELMDL">    -5</i>
    <i type="int" name="NELMIN">     2</i>
    <i name="ENINI">    459.93125000</i>
    <separator name="electronic convergence detail" >
     <i type="logical" name="LDIAG"> T  </i>
     <i type="logical" name="LSUBROT"> F  </i>
     <i name="WEIMIN">      0.00100000</i>
     <i name="EBREAK">      0.00000000</i>
     <i name="DEPER">      0.30000000</i>
     <i type="int" name="NRMM">     4</i>
     <i name="TIME">      0.40000000</i>
    </separator>
   </separator>
   <separator name="electronic mixer" >
    <i name="AMIX">      0.40000000</i>
    <i name="BMIX">      1.00000000</i>
    <i name="AMIN">      0.10000000</i>
    <i name="AMIX_MAG">      1.60000000</i>
    <i name="BMIX_MAG">      1.00000000</i>
    <separator name="electronic mixer details" >
     <i type="int" name="IMIX">     4</i>
     <i type="logical" name="MIXFIRST"> F  </i>
     <i type="int" name="MAXMIX">   -45</i>
     <i name="WC">    100.00000000</i>
     <i type="int" name="INIMIX">     1</i>
     <i type="int" name="MIXPRE">     1</i>
     <i type="int" name="MREMOVE">     5</i>
    </separator>
   </separator>
   <separator name="electronic dipolcorrection" >
    <i type="logical" name="LDIPOL"> F  </i>
    <i type="logical" name="LMONO"> F  </i>
    <i type="int" name="IDIPOL">     0</i>
    <i name="EPSILON">      1.00000000</i>
    <v name="DIPOL">   -100.00000000   -100.00000000   -100.00000000</v>
    <i name="EFIELD">      0.00000000</i>
   </separator>
  </separator>
  <separator name="grids" >
   <i type="int" name="NGX">    70</i>
   <i type="int" name="NGY">    70</i>
   <i type="int" name="NGZ">    70</i>
   <i type="int" name="NGXF">   120</i>
   <i type="int" name="NGYF">   120</i>
   <i type="int" name="NGZF">   120</i>
   <i type="logical" name="ADDGRID"> F  </i>
  </separator>
  <separator name="ionic" >
   <i type="int" name="NSW">     1</i>
   <i type="int" name="IBRION">     8</i>
   <i type="int" name="ISIF">     2</i>
   <i name="PSTRESS">      0.00000000</i>
   <i name="EDIFFG">      0.00001000</i>
   <i type="int" name="NFREE">     0</i>
   <i name="POTIM">      0.50000000</i>
   <i name="SMASS">     -3.00000000</i>
   <i name="SCALEE">      1.00000000</i>
  </separator>
  <separator name="ionic md" >
   <i name="TEBEG">      0.00010000</i>
   <i name="TEEND">      0.00010000</i>
   <i type="int" name="NBLOCK">     1</i>
   <i type="int" name="KBLOCK">     1</i>
   <i type="int" name="NPACO">   256</i>
   <i name="APACO">     16.00000000</i>
  </separator>
  <separator name="symmetry" >
   <i type="int" name="ISYM">     2</i>
   <i name="SYMPREC">      0.00001000</i>
  </separator>
  <separator name="dos" >
   <i type="logical" name="LORBIT"> F  </i>
   <v name="RWIGS">     -1.00000000</v>
   <i type="int" name="NEDOS">   301</i>
   <i name="EMIN">     10.00000000</i>
   <i name="EMAX">    -10.00000000</i>
   <i name="EFERMI">      0.00000000</i>
  </separator>
  <separator name="writing" >
   <i type="int" name="NWRITE">     0</i>
   <i type="logical" name="LWAVE"> T  </i>
   <i type="logical" name="LCHARG"> T  </i>
   <i type="logical" name="LPARD"> F  </i>
   <i type="logical" name="LVTOT"> F  </i>
   <i type="logical" name="LVHAR"> F  </i>
   <i type="logical" name="LELF"> F  </i>
   <i type="logical" name="LOPTICS"> F  </i>
   <v name="STM">      0.00000000      0.00000000      0.00000000      0.00000000      0.00000000      0.00000000      0.00000000</v>
  </separator>
  <separator name="performance" >
   <i type="int" name="NPAR">     8</i>
   <i type="int" name="NSIM">     4</i>
   <i type="int" name="NBLK">    -1</i>
   <i type="logical" name="LPLANE"> T  </i>
   <i type="logical" name="LSCALAPACK"> T  </i>
   <i type="logical" name="LSCAAWARE"> F  </i>
   <i type="logical" name="LSCALU"> F  </i>
   <i type="logical" name="LASYNC"> F  </i>
   <i type="logical" name="LORBITALREAL"> F  </i>
  </separator>
  <separator name="miscellaneous" >
   <i type="int" name="IDIOT">     3</i>
   <i type="logical" name="LMUSIC"> F  </i>
   <v name="POMASS">     58.69000000</v>
   <v name="DARWINR">      0.00000000</v>
   <v name="DARWINV">      1.00000000</v>
   <i type="logical" name="LCORR"> T  </i>
  </separator>
  <i type="logical" name="GGA_COMPAT"> T  </i>
  <i type="logical" name="LBERRY"> F  </i>
  <i type="int" name="ICORELEVEL">     0</i>
  <i type="logical" name="LDAU"> F  </i>
  <i type="int" name="I_CONSTRAINED_M">     0</i>
  <separator name="electronic exchange-correlation" >
   <i type="string" name="GGA">--</i>
   <i type="int" name="VOSKOWN">     0</i>
   <i type="logical" name="LHFCALC"> F  </i>
   <i type="string" name="PRECFOCK"></i>
   <i type="logical" name="LSYMGRAD"> F  </i>
   <i type="logical" name="LHFONE"> F  </i>
   <i type="logical" name="LRHFCALC"> F  </i>
   <i type="logical" name="LTHOMAS"> F  </i>
   <i type="logical" name="LMODELHF"> F  </i>
   <i name="ENCUT4O">     -1.00000000</i>
   <i type="int" name="EXXOEP">     0</i>
   <i type="int" name="FOURORBIT">     0</i>
   <i name="AEXX">      0.00000000</i>
   <i name="HFALPHA">      0.00000000</i>
   <i name="MCALPHA">      0.00000000</i>
   <i name="ALDAX">      1.00000000</i>
   <i name="AGGAX">      1.00000000</i>
   <i name="ALDAC">      1.00000000</i>
   <i name="AGGAC">      1.00000000</i>
   <i type="int" name="NKREDX">     1</i>
   <i type="int" name="NKREDY">     1</i>
   <i type="int" name="NKREDZ">     1</i>
   <i type="logical" name="SHIFTRED"> F  </i>
   <i type="logical" name="ODDONLY"> F  </i>
   <i type="logical" name="EVENONLY"> F  </i>
   <i type="int" name="LMAXFOCK">     0</i>
   <i type="int" name="NMAXFOCKAE">     0</i>
   <i type="logical" name="LFOCKAEDFT"> F  </i>
   <i name="HFSCREEN">      0.00000000</i>
   <i name="HFSCREENC">      0.00000000</i>
   <i type="int" name="NBANDSGWLOW">     0</i>
  </separator>
  <separator name="vdW DFT" >
   <i type="logical" name="LUSE_VDW"> F  </i>
   <i name="Zab_VDW">     -0.84910000</i>
   <i name="PARAM1">      0.12340000</i>
   <i name="PARAM2">      1.00000000</i>
   <i name="PARAM3">      0.00000000</i>
  </separator>
  <separator name="model GW" >
   <i type="int" name="MODEL_GW">     0</i>
   <i name="MODEL_EPS0">      6.27880961</i>
   <i name="MODEL_ALPHA">      1.00000000</i>
  </separator>
  <separator name="linear response parameters" >
   <i type="logical" name="LEPSILON"> F  </i>
   <i type="logical" name="LRPA"> F  </i>
   <i type="logical" name="LNABLA"> F  </i>
   <i type="logical" name="LVEL"> F  </i>
   <i type="int" name="KINTER">     0</i>
   <i name="CSHIFT">      0.10000000</i>
   <i name="OMEGAMAX">     -1.00000000</i>
   <i name="DEG_THRESHOLD">      0.00200000</i>
  </separator>
  <separator name="orbital magnetization" >
   <i type="logical" name="NUCIND"> F  </i>
   <v name="MAGPOS">      0.00000000      0.00000000      0.00000000</v>
   <i type="logical" name="LNICSALL"> T  </i>
   <i type="logical" name="ORBITALMAG"> F  </i>
   <i type="logical" name="LMAGBLOCH"> F  </i>
   <i type="logical" name="LCHIMAG"> F  </i>
   <i type="logical" name="LGAUGE"> T  </i>
   <i type="int" name="MAGATOM">     0</i>
   <v name="MAGDIPOL">      0.00000000      0.00000000      0.00000000</v>
   <v name="AVECCONST">      0.00000000      0.00000000      0.00000000</v>
  </separator>
  <separator name="response functions" >
   <i type="logical" name="LADDER"> F  </i>
   <i type="logical" name="LFXC"> F  </i>
   <i type="logical" name="LHARTREE"> T  </i>
   <i type="int" name="IBSE">     0</i>
   <v type="int" name="KPOINT">    -1     0     0     0</v>
   <i type="logical" name="LTCTE"> F  </i>
   <i type="logical" name="LTETE"> F  </i>
   <i type="logical" name="LTRIPLET"> F  </i>
   <i type="logical" name="LFXCEPS"> F  </i>
   <i type="logical" name="LFXHEG"> F  </i>
   <i type="int" name="NATURALO">     0</i>
   <i type="logical" name="L2ORDER"> F  </i>
   <i type="logical" name="LUSEW"> F  </i>
   <i name="ENCUTGW">     -2.00000000</i>
   <i name="ENCUTGWSOFT">     -2.00000000</i>
   <i name="ENCUTLF">     -1.00000000</i>
   <i type="int" name="LMAXMP2">    -1</i>
   <i name="SCISSOR">      0.00000000</i>
   <i type="int" name="NOMEGA">     0</i>
   <i type="int" name="NOMEGAR">     0</i>
   <i type="int" name="NBANDSGW">    -1</i>
   <i type="int" name="NBANDSO">    -1</i>
   <i type="int" name="NBANDSV">    -1</i>
   <i type="int" name="NELM">     1</i>
   <i type="int" name="NELMHF">     1</i>
   <i type="int" name="DIM">     3</i>
   <i type="int" name="ANTIRES">     0</i>
   <i name="OMEGAMAX">    -30.00000000</i>
   <i name="OMEGAMIN">    -30.00000000</i>
   <i name="OMEGATL">   -200.00000000</i>
   <i type="int" name="OMEGAGRID">     0</i>
   <i name="CSHIFT">     -0.10000000</i>
   <i type="logical" name="SELFENERGY"> F  </i>
   <i type="logical" name="LSPECTRAL"> F  </i>
   <i type="logical" name="LSPECTRALGW"> F  </i>
   <i type="logical" name="LSINGLES"> F  </i>
   <i type="logical" name="LFERMIGW"> F  </i>
   <i type="logical" name="ODDONLYGW"> F  </i>
   <i type="logical" name="EVENONLYGW"> F  </i>
   <i type="int" name="NKREDLFX">     1</i>
   <i type="int" name="NKREDLFY">     1</i>
   <i type="int" name="NKREDLFZ">     1</i>
   <i type="int" name="MAXMEM">  1800</i>
   <i type="int" name="TELESCOPE">     0</i>
   <i type="int" name="TAUPAR">     1</i>
   <i type="int" name="OMEGAPAR">    -1</i>
   <i name="LAMBDA">      1.00000000</i>
  </separator>
  <separator name="External order field" >
   <i name="OFIELD_KAPPA">      0.00000000</i>
   <v name="OFIELD_K">      0.00000000      0.00000000      0.00000000</v>
   <i name="OFIELD_Q6_NEAR">      0.00000000</i>
   <i name="OFIELD_Q6_FAR">      0.00000000</i>
   <i name="OFIELD_A">      0.00000000</i>
  </separator>
 </parameters>
 <atominfo>
  <atoms>      64 </atoms>
  <types>       1 </types>
  <array name="atoms" >
   <dimension dim="1">ion</dimension>
   <field type="string">element</field>
   <field type="int">atomtype</field>
   <set>
    <rc><c>Ni</c><c>   1</c></rc>
    <rc><c>Ni</c><c>   1</c></rc>
    <rc><c>Ni</c><c>   1</c></rc>
    <rc><c>Ni</c><c>   1</c></rc>
    <rc><c>Ni</c><c>   1</c></rc>
    <rc><c>Ni</c><c>   1</c></rc>
    <rc><c>Ni</c><c>   1</c></rc>
    <rc><c>Ni</c><c>   1</c></rc>
    <rc><c>Ni</c><c>   1</c></rc>
    <rc><c>Ni</c><c>   1</c></rc>
    <rc><c>Ni</c><c>   1</c></rc>
    <rc><c>Ni</c><c>   1</c></rc>
    <rc><c>Ni</c><c>   1</c></rc>
    <rc><c>Ni</c><c>   1</c></rc>
    <rc><c>Ni</c><c>   1</c></rc>
    <rc><c>Ni</c><c>   1</c></rc>
    <rc><c>Ni</c><c>   1</c></rc>
    <rc><c>Ni</c><c>   1</c></rc>
    <rc><c>Ni</c><c>   1</c></rc>
    <rc><c>Ni</c><c>   1</c></rc>
    <rc><c>Ni</c><c>   1</c></rc>
    <rc><c>Ni</c><c>   1</c></rc>
    <rc><c>Ni</c><c>   1</c></rc>
    <rc><c>Ni</c><c>   1</c></rc>
    <rc><c>Ni</c><c>   1</c></rc>
    <rc><c>Ni</c><c>   1</c></rc>
    <rc><c>Ni</c><c>   1</c></rc>
    <rc><c>Ni</c><c>   1</c></rc>
    <rc><c>Ni</c><c>   1</c></rc>
    <rc><c>Ni</c><c>   1</c></rc>
    <rc><c>Ni</c><c>   1</c></rc>
    <rc><c>Ni</c><c>   1</c></rc>
    <rc><c>Ni</c><c>   1</c></rc>
    <rc><c>Ni</c><c>   1</c></rc>
    <rc><c>Ni</c><c>   1</c></rc>
    <rc><c>Ni</c><c>   1</c></rc>
    <rc><c>Ni</c><c>   1</c></rc>
    <rc><c>Ni</c><c>   1</c></rc>
    <rc><c>Ni</c><c>   1</c></rc>
    <rc><c>Ni</c><c>   1</c></rc>
    <rc><c>Ni</c><c>   1</c></rc>
    <rc><c>Ni</c><c>   1</c></rc>
    <rc><c>Ni</c><c>   1</c></rc>
    <rc><c>Ni</c><c>   1</c></rc>
    <rc><c>Ni</c><c>   1</c></rc>
    <rc><c>Ni</c><c>   1</c></rc>
    <rc><c>Ni</c><c>   1</c></rc>
    <rc><c>Ni</c><c>   1</c></rc>
    <rc><c>Ni</c><c>   1</c></rc>
    <rc><c>Ni</c><c>   1</c></rc>
    <rc><c>Ni</c><c>   1</c></rc>
    <rc><c>Ni</c><c>   1</c></rc>
    <rc><c>Ni</c><c>   1</c></rc>
    <rc><c>Ni</c><c>   1</c></rc>
    <rc><c>Ni</c><c>   1</c></rc>
    <rc><c>Ni</c><c>   1</c></rc>
    <rc><c>Ni</c><c>   1</c></rc>
    <rc><c>Ni</c><c>   1</c></rc>
    <rc><c>Ni</c><c>   1</c></rc>
    <rc><c>Ni</c><c>   1</c></rc>
    <rc><c>Ni</c><c>   1</c></rc>
    <rc><c>Ni</c><c>   1</c></rc>
    <rc><c>Ni</c><c>   1</c></rc>
    <rc><c>Ni</c><c>   1</c></rc>
   </set>
  </array>
  <array name="atomtypes" >
   <dimension dim="1">type</dimension>
   <field type="int">atomspertype</field>
   <field type="string">element</field>
   <field>mass</field>
   <field>valence</field>
   <field type="string">pseudopotential</field>
   <set>
    <rc><c>  64</c><c>Ni</c><c>     58.69000000</c><c>     16.00000000</c><c> PAW_PBE Ni_pv 06Sep2000                </c></rc>
   </set>
  </array>
 </atominfo>
 <structure name="initialpos" >
  <crystal>
   <varray name="basis" >
    <v>       0.00000000       6.94425000       6.94425000 </v>
    <v>       6.94425000       0.00000000       6.94425000 </v>
    <v>       6.94425000       6.94425000       0.00000000 </v>
   </varray>
   <i name="volume">    669.73969208 </i>
   <varray name="rec_basis" >
    <v>      -0.07200202       0.07200202       0.07200202 </v>
    <v>       0.07200202      -0.07200202       0.07200202 </v>
    <v>       0.07200202       0.07200202      -0.07200202 </v>
   </varray>
  </crystal>
  <varray name="positions" >
   <v>       0.00000000       0.00000000       0.00000000 </v>
   <v>       0.00000000       0.00000000       0.25000000 </v>
   <v>       0.00000000       0.00000000       0.50000000 </v>
   <v>       0.00000000       0.00000000       0.75000000 </v>
   <v>       0.00000000       0.25000000       0.00000000 </v>
   <v>       0.00000000       0.25000000       0.25000000 </v>
   <v>       0.00000000       0.25000000       0.50000000 </v>
   <v>       0.00000000       0.25000000       0.75000000 </v>
   <v>       0.00000000       0.50000000       0.00000000 </v>
   <v>       0.00000000       0.50000000       0.25000000 </v>
   <v>       0.00000000       0.50000000       0.50000000 </v>
   <v>       0.00000000       0.50000000       0.75000000 </v>
   <v>       0.00000000       0.75000000       0.00000000 </v>
   <v>       0.00000000       0.75000000       0.25000000 </v>
   <v>       0.00000000       0.75000000       0.50000000 </v>
   <v>       0.00000000       0.75000000       0.75000000 </v>
   <v>       0.25000000       0.00000000       0.00000000 </v>
   <v>       0.25000000       0.00000000       0.25000000 </v>
   <v>       0.25000000       0.00000000       0.50000000 </v>
   <v>       0.25000000       0.00000000       0.75000000 </v>
   <v>       0.25000000       0.25000000       0.00000000 </v>
   <v>       0.25000000       0.25000000       0.25000000 </v>
   <v>       0.25000000       0.25000000       0.50000000 </v>
   <v>       0.25000000       0.25000000       0.75000000 </v>
   <v>       0.25000000       0.50000000       0.00000000 </v>
   <v>       0.25000000       0.50000000       0.25000000 </v>
   <v>       0.25000000       0.50000000       0.50000000 </v>
   <v>       0.25000000       0.50000000       0.75000000 </v>
   <v>       0.25000000       0.75000000       0.00000000 </v>
   <v>       0.25000000       0.75000000       0.25000000 </v>
   <v>       0.25000000       0.75000000       0.50000000 </v>
   <v>       0.25000000       0.75000000       0.75000000 </v>
   <v>       0.50000000       0.00000000       0.00000000 </v>
   <v>       0.50000000       0.00000000       0.25000000 </v>
   <v>       0.50000000       0.00000000       0.50000000 </v>
   <v>       0.50000000       0.00000000       0.75000000 </v>
   <v>       0.50000000       0.25000000       0.00000000 </v>
   <v>       0.50000000       0.25000000       0.25000000 </v>
   <v>       0.50000000       0.25000000       0.50000000 </v>
   <v>       0.50000000       0.25000000       0.75000000 </v>
   <v>       0.50000000       0.50000000       0.00000000 </v>
   <v>       0.50000000       0.50000000       0.25000000 </v>
   <v>       0.50000000       0.50000000       0.50000000 </v>
   <v>       0.50000000       0.50000000       0.75000000 </v>
   <v>       0.50000000       0.75000000       0.00000000 </v>
   <v>       0.50000000       0.75000000       0.25000000 </v>
   <v>       0.50000000       0.75000000       0.50000000 </v>
   <v>       0.50000000       0.75000000       0.75000000 </v>
   <v>       0.75000000       0.00000000       0.00000000 </v>
   <v>       0.75000000       0.00000000       0.25000000 </v>
   <v>       0.75000000       0.00000000       0.50000000 </v>
   <v>       0.75000000       0.00000000       0.75000000 </v>
   <v>       0.75000000       0.25000000       0.00000000 </v>
   <v>       0.75000000       0.25000000       0.25000000 </v>
   <v>       0.75000000       0.25000000       0.50000000 </v>
   <v>       0.75000000       0.25000000       0.75000000 </v>
   <v>       0.75000000       0.50000000       0.00000000 </v>
   <v>       0.75000000       0.50000000       0.25000000 </v>
   <v>       0.75000000       0.50000000       0.50000000 </v>
   <v>       0.75000000       0.50000000       0.75000000 </v>
   <v>       0.75000000       0.75000000       0.00000000 </v>
   <v>       0.75000000       0.75000000       0.25000000 </v>
   <v>       0.75000000       0.75000000       0.50000000 </v>
   <v>       0.75000000       0.75000000       0.75000000 </v>
  </varray>
 </structure>
 <calculation>
  <scstep>
   <time name="dav">  113.12  113.03</time>
   <time name="total">  113.47  113.37</time>
   <energy>
    <i name="alphaZ">  10302.80525912 </i>
    <i name="ewald">-155767.55935361 </i>
    <i name="hartreedc"> -60457.14383376 </i>
    <i name="XCdc">   5728.73189127 </i>
    <i name="pawpsdc"> 172361.15642774 </i>
    <i name="pawaedc">-181272.45834873 </i>
    <i name="eentropy">     -0.00441129 </i>
    <i name="bandstr">   1194.57601663 </i>
    <i name="atom"> 224016.65216645 </i>
    <i name="e_fr_energy">  16106.75581382 </i>
    <i name="e_wo_entrp">  16106.76022512 </i>
    <i name="e_0_energy">  16106.75728425 </i>
   </energy>
  </scstep>
  <scstep>
   <time name="dav">  104.09  104.01</time>
   <time name="total">  104.09  104.01</time>
   <energy>
    <i name="e_fr_energy">   1193.70607324 </i>
    <i name="e_wo_entrp">   1193.70081436 </i>
    <i name="e_0_energy">   1193.70432028 </i>
   </energy>
  </scstep>
  <scstep>
   <time name="dav">  105.00  104.91</time>
   <time name="total">  105.00  104.92</time>
   <energy>
    <i name="e_fr_energy">   -343.49321287 </i>
    <i name="e_wo_entrp">   -343.56696747 </i>
    <i name="e_0_energy">   -343.51779774 </i>
   </energy>
  </scstep>
  <scstep>
   <time name="dav">  109.39  109.30</time>
   <time name="total">  109.40  109.31</time>
   <energy>
    <i name="e_fr_energy">   -430.70252786 </i>
    <i name="e_wo_entrp">   -430.83980223 </i>
    <i name="e_0_energy">   -430.74828598 </i>
   </energy>
  </scstep>
  <scstep>
   <time name="dav">  109.29  109.21</time>
   <time name="total">  114.39  114.30</time>
   <energy>
    <i name="e_fr_energy">   -432.14463964 </i>
    <i name="e_wo_entrp">   -432.28247048 </i>
    <i name="e_0_energy">   -432.19058325 </i>
   </energy>
  </scstep>
  <scstep>
   <time name="dav">  108.04  107.95</time>
   <time name="total">  113.36  113.26</time>
   <energy>
    <i name="e_fr_energy">   -393.53900757 </i>
    <i name="e_wo_entrp">   -393.23954343 </i>
    <i name="e_0_energy">   -393.43918619 </i>
   </energy>
  </scstep>
  <scstep>
   <time name="dav">  107.74  107.65</time>
   <time name="total">  113.07  112.98</time>
   <energy>
    <i name="e_fr_energy">   -369.47221909 </i>
    <i name="e_wo_entrp">   -369.36610088 </i>
    <i name="e_0_energy">   -369.43684635 </i>
   </energy>
  </scstep>
  <scstep>
   <time name="dav">  109.51  109.42</time>
   <time name="total">  114.87  114.78</time>
   <energy>
    <i name="e_fr_energy">   -369.36134913 </i>
    <i name="e_wo_entrp">   -369.21008475 </i>
    <i name="e_0_energy">   -369.31092767 </i>
   </energy>
  </scstep>
  <scstep>
   <time name="dav">  117.20  117.10</time>
   <time name="total">  122.55  122.45</time>
   <energy>
    <i name="e_fr_energy">   -369.24180933 </i>
    <i name="e_wo_entrp">   -369.06197288 </i>
    <i name="e_0_energy">   -369.18186385 </i>
   </energy>
  </scstep>
  <scstep>
   <time name="dav">  111.25  111.16</time>
   <time name="total">  116.61  116.51</time>
   <energy>
    <i name="e_fr_energy">   -369.24552571 </i>
    <i name="e_wo_entrp">   -369.06561632 </i>
    <i name="e_0_energy">   -369.18555591 </i>
   </energy>
  </scstep>
  <scstep>
   <time name="dav">  109.53  109.44</time>
   <time name="total">  114.87  114.78</time>
   <energy>
    <i name="e_fr_energy">   -369.24765236 </i>
    <i name="e_wo_entrp">   -369.06886565 </i>
    <i name="e_0_energy">   -369.18805679 </i>
   </energy>
  </scstep>
  <scstep>
   <time name="dav">  107.90  107.81</time>
   <time name="total">  113.26  113.16</time>
   <energy>
    <i name="e_fr_energy">   -369.24770415 </i>
    <i name="e_wo_entrp">   -369.06783717 </i>
    <i name="e_0_energy">   -369.18774849 </i>
   </energy>
  </scstep>
  <scstep>
   <time name="dav">  103.58  103.49</time>
   <time name="total">  108.94  108.85</time>
   <energy>
    <i name="e_fr_energy">   -369.24770962 </i>
    <i name="e_wo_entrp">   -369.06746903 </i>
    <i name="e_0_energy">   -369.18762942 </i>
   </energy>
  </scstep>
  <scstep>
   <time name="dav">   95.18   95.10</time>
   <time name="total">  100.54  100.45</time>
   <energy>
    <i name="e_fr_energy">   -369.24768544 </i>
    <i name="e_wo_entrp">   -369.06732860 </i>
    <i name="e_0_energy">   -369.18756649 </i>
   </energy>
  </scstep>
  <scstep>
   <time name="dav">   67.40   67.34</time>
   <time name="total">   72.74   72.68</time>
   <energy>
    <i name="e_fr_energy">   -369.24768061 </i>
    <i name="e_wo_entrp">   -369.06734344 </i>
    <i name="e_0_energy">   -369.18756822 </i>
   </energy>
  </scstep>
  <scstep>
   <time name="dav">   67.38   67.33</time>
   <time name="total">   67.70   67.66</time>
   <energy>
    <i name="alphaZ">  10302.80525912 </i>
    <i name="ewald">-155767.55935361 </i>
    <i name="hartreedc"> -58085.11071190 </i>
    <i name="XCdc">   5637.46387203 </i>
    <i name="pawpsdc"> 172589.55537329 </i>
    <i name="pawaedc">-181662.98445267 </i>
    <i name="eentropy">     -0.18031516 </i>
    <i name="bandstr"> -17399.88951837 </i>
    <i name="atom"> 224016.65216645 </i>
    <i name="e_fr_energy">   -369.24768081 </i>
    <i name="e_wo_entrp">   -369.06736565 </i>
    <i name="e_0_energy">   -369.18757575 </i>
   </energy>
  </scstep>
  <structure>
   <crystal>
    <varray name="basis" >
     <v>       0.00000000       6.94425000       6.94425000 </v>
     <v>       6.94425000       0.00000000       6.94425000 </v>
     <v>       6.94425000       6.94425000       0.00000000 </v>
    </varray>
    <i name="volume">    669.73969208 </i>
    <varray name="rec_basis" >
     <v>      -0.07200202       0.07200202       0.07200202 </v>
     <v>       0.07200202      -0.07200202       0.07200202 </v>
     <v>       0.07200202       0.07200202      -0.07200202 </v>
    </varray>
   </crystal>
   <varray name="positions" >
    <v>       0.00000000       0.00000000       0.00000000 </v>
    <v>       0.00000000       0.00000000       0.25000000 </v>
    <v>       0.00000000       0.00000000       0.50000000 </v>
    <v>       0.00000000       0.00000000       0.75000000 </v>
    <v>       0.00000000       0.25000000       0.00000000 </v>
    <v>       0.00000000       0.25000000       0.25000000 </v>
    <v>       0.00000000       0.25000000       0.50000000 </v>
    <v>       0.00000000       0.25000000       0.75000000 </v>
    <v>       0.00000000       0.50000000       0.00000000 </v>
    <v>       0.00000000       0.50000000       0.25000000 </v>
    <v>       0.00000000       0.50000000       0.50000000 </v>
    <v>       0.00000000       0.50000000       0.75000000 </v>
    <v>       0.00000000       0.75000000       0.00000000 </v>
    <v>       0.00000000       0.75000000       0.25000000 </v>
    <v>       0.00000000       0.75000000       0.50000000 </v>
    <v>       0.00000000       0.75000000       0.75000000 </v>
    <v>       0.25000000       0.00000000       0.00000000 </v>
    <v>       0.25000000       0.00000000       0.25000000 </v>
    <v>       0.25000000       0.00000000       0.50000000 </v>
    <v>       0.25000000       0.00000000       0.75000000 </v>
    <v>       0.25000000       0.25000000       0.00000000 </v>
    <v>       0.25000000       0.25000000       0.25000000 </v>
    <v>       0.25000000       0.25000000       0.50000000 </v>
    <v>       0.25000000       0.25000000       0.75000000 </v>
    <v>       0.25000000       0.50000000       0.00000000 </v>
    <v>       0.25000000       0.50000000       0.25000000 </v>
    <v>       0.25000000       0.50000000       0.50000000 </v>
    <v>       0.25000000       0.50000000       0.75000000 </v>
    <v>       0.25000000       0.75000000       0.00000000 </v>
    <v>       0.25000000       0.75000000       0.25000000 </v>
    <v>       0.25000000       0.75000000       0.50000000 </v>
    <v>       0.25000000       0.75000000       0.75000000 </v>
    <v>       0.50000000       0.00000000       0.00000000 </v>
    <v>       0.50000000       0.00000000       0.25000000 </v>
    <v>       0.50000000       0.00000000       0.50000000 </v>
    <v>       0.50000000       0.00000000       0.75000000 </v>
    <v>       0.50000000       0.25000000       0.00000000 </v>
    <v>       0.50000000       0.25000000       0.25000000 </v>
    <v>       0.50000000       0.25000000       0.50000000 </v>
    <v>       0.50000000       0.25000000       0.75000000 </v>
    <v>       0.50000000       0.50000000       0.00000000 </v>
    <v>       0.50000000       0.50000000       0.25000000 </v>
    <v>       0.50000000       0.50000000       0.50000000 </v>
    <v>       0.50000000       0.50000000       0.75000000 </v>
    <v>       0.50000000       0.75000000       0.00000000 </v>
    <v>       0.50000000       0.75000000       0.25000000 </v>
    <v>       0.50000000       0.75000000       0.50000000 </v>
    <v>       0.50000000       0.75000000       0.75000000 </v>
    <v>       0.75000000       0.00000000       0.00000000 </v>
    <v>       0.75000000       0.00000000       0.25000000 </v>
    <v>       0.75000000       0.00000000       0.50000000 </v>
    <v>       0.75000000       0.00000000       0.75000000 </v>
    <v>       0.75000000       0.25000000       0.00000000 </v>
    <v>       0.75000000       0.25000000       0.25000000 </v>
    <v>       0.75000000       0.25000000       0.50000000 </v>
    <v>       0.75000000       0.25000000       0.75000000 </v>
    <v>       0.75000000       0.50000000       0.00000000 </v>
    <v>       0.75000000       0.50000000       0.25000000 </v>
    <v>       0.75000000       0.50000000       0.50000000 </v>
    <v>       0.75000000       0.50000000       0.75000000 </v>
    <v>       0.75000000       0.75000000       0.00000000 </v>
    <v>       0.75000000       0.75000000       0.25000000 </v>
    <v>       0.75000000       0.75000000       0.50000000 </v>
    <v>       0.75000000       0.75000000       0.75000000 </v>
   </varray>
  </structure>
  <varray name="forces" >
   <v>       0.00000000      -0.00000000       0.00000000 </v>
   <v>      -0.00000000      -0.00000000      -0.00000000 </v>
   <v>       0.00000000       0.00000000       0.00000000 </v>
   <v>      -0.00000000      -0.00000000       0.00000000 </v>
   <v>      -0.00000000      -0.00000000      -0.00000000 </v>
   <v>       0.00000000      -0.00000000      -0.00000000 </v>
   <v>      -0.00000000       0.00000000       0.00000000 </v>
   <v>      -0.00000000       0.00000000      -0.00000000 </v>
   <v>      -0.00000000      -0.00000000       0.00000000 </v>
   <v>       0.00000000      -0.00000000      -0.00000000 </v>
   <v>       0.00000000       0.00000000       0.00000000 </v>
   <v>       0.00000000       0.00000000      -0.00000000 </v>
   <v>      -0.00000000      -0.00000000      -0.00000000 </v>
   <v>       0.00000000      -0.00000000      -0.00000000 </v>
   <v>       0.00000000       0.00000000       0.00000000 </v>
   <v>      -0.00000000      -0.00000000      -0.00000000 </v>
   <v>       0.00000000       0.00000000       0.00000000 </v>
   <v>       0.00000000      -0.00000000      -0.00000000 </v>
   <v>       0.00000000       0.00000000       0.00000000 </v>
   <v>       0.00000000       0.00000000      -0.00000000 </v>
   <v>      -0.00000000      -0.00000000      -0.00000000 </v>
   <v>      -0.00000000       0.00000000       0.00000000 </v>
   <v>       0.00000000       0.00000000       0.00000000 </v>
   <v>      -0.00000000       0.00000000      -0.00000000 </v>
   <v>      -0.00000000      -0.00000000      -0.00000000 </v>
   <v>       0.00000000      -0.00000000      -0.00000000 </v>
   <v>       0.00000000       0.00000000       0.00000000 </v>
   <v>       0.00000000      -0.00000000      -0.00000000 </v>
   <v>      -0.00000000       0.00000000       0.00000000 </v>
   <v>       0.00000000      -0.00000000      -0.00000000 </v>
   <v>       0.00000000       0.00000000       0.00000000 </v>
   <v>      -0.00000000       0.00000000       0.00000000 </v>
   <v>      -0.00000000      -0.00000000       0.00000000 </v>
   <v>      -0.00000000       0.00000000      -0.00000000 </v>
   <v>       0.00000000       0.00000000       0.00000000 </v>
   <v>       0.00000000      -0.00000000      -0.00000000 </v>
   <v>      -0.00000000      -0.00000000       0.00000000 </v>
   <v>      -0.00000000       0.00000000       0.00000000 </v>
   <v>      -0.00000000       0.00000000       0.00000000 </v>
   <v>       0.00000000       0.00000000      -0.00000000 </v>
   <v>      -0.00000000      -0.00000000       0.00000000 </v>
   <v>      -0.00000000      -0.00000000      -0.00000000 </v>
   <v>       0.00000000       0.00000000       0.00000000 </v>
   <v>       0.00000000       0.00000000       0.00000000 </v>
   <v>      -0.00000000      -0.00000000       0.00000000 </v>
   <v>      -0.00000000      -0.00000000      -0.00000000 </v>
   <v>       0.00000000       0.00000000       0.00000000 </v>
   <v>      -0.00000000      -0.00000000      -0.00000000 </v>
   <v>       0.00000000      -0.00000000       0.00000000 </v>
   <v>       0.00000000      -0.00000000      -0.00000000 </v>
   <v>      -0.00000000       0.00000000       0.00000000 </v>
   <v>       0.00000000      -0.00000000       0.00000000 </v>
   <v>      -0.00000000      -0.00000000       0.00000000 </v>
   <v>       0.00000000       0.00000000      -0.00000000 </v>
   <v>      -0.00000000       0.00000000       0.00000000 </v>
   <v>       0.00000000      -0.00000000       0.00000000 </v>
   <v>      -0.00000000      -0.00000000      -0.00000000 </v>
   <v>       0.00000000      -0.00000000      -0.00000000 </v>
   <v>       0.00000000       0.00000000       0.00000000 </v>
   <v>       0.00000000      -0.00000000       0.00000000 </v>
   <v>       0.00000000      -0.00000000       0.00000000 </v>
   <v>       0.00000000      -0.00000000      -0.00000000 </v>
   <v>      -0.00000000       0.00000000       0.00000000 </v>
   <v>      -0.00000000      -0.00000000      -0.00000000 </v>
  </varray>
  <varray name="stress" >
   <v>      85.69235078      -0.00000000      -0.00000000 </v>
   <v>       0.00000000      85.69235078      -0.00000000 </v>
   <v>       0.00000000       0.00000000      85.69235078 </v>
  </varray>
  <energy>
   <i name="e_fr_energy">   -369.24768081 </i>
   <i name="e_wo_entrp">   -369.18757575 </i>
   <i name="e_0_energy">     -0.18031516 </i>
  </energy>
  <kpoints>
   <generation param="Gamma">
    <v type="int" name="divisions">       3        3        3 </v>
    <v name="usershift">      0.00000000       0.00000000       0.00000000 </v>
    <v name="genvec1">      0.33333333       0.00000000       0.00000000 </v>
    <v name="genvec2">      0.00000000       0.33333333       0.00000000 </v>
    <v name="genvec3">      0.00000000       0.00000000       0.33333333 </v>
    <v name="shift">      0.00000000       0.00000000       0.00000000 </v>
   </generation>
   <varray name="kpointlist" >
    <v>       0.00000000       0.00000000       0.00000000 </v>
    <v>       0.33333333       0.00000000       0.00000000 </v>
    <v>       0.33333333       0.33333333       0.00000000 </v>
    <v>      -0.33333333       0.33333333       0.00000000 </v>
    <v>       0.00000000       0.33333333       0.33333333 </v>
    <v>      -0.33333333       0.33333333       0.33333333 </v>
   </varray>
   <varray name="weights" >
    <v>       0.03703704 </v>
    <v>       0.29629630 </v>
    <v>       0.14814815 </v>
    <v>       0.29629630 </v>
    <v>       0.07407407 </v>
    <v>       0.14814815 </v>
   </varray>
  </kpoints>
  <scstep>
   <time name="total">  157.98  157.91</time>
   <energy>
    <i name="e_fr_energy">  -3380.28454595 </i>
    <i name="e_wo_entrp">  -3380.28454592 </i>
    <i name="e_0_energy">  -3380.28454594 </i>
   </energy>
  </scstep>
  <scstep>
   <time name="total">  210.16  210.05</time>
   <energy>
    <i name="e_fr_energy">  -4041.10971401 </i>
    <i name="e_wo_entrp">  -4041.10991338 </i>
    <i name="e_0_energy">  -4041.10978047 </i>
   </energy>
  </scstep>
  <scstep>
   <time name="total">  205.37  205.20</time>
   <energy>
    <i name="e_fr_energy">  -4040.78379580 </i>
    <i name="e_wo_entrp">  -4040.78393857 </i>
    <i name="e_0_energy">  -4040.78384339 </i>
   </energy>
  </scstep>
  <scstep>
   <time name="total">  167.65  167.55</time>
   <energy>
    <i name="e_fr_energy">  -4038.26758754 </i>
    <i name="e_wo_entrp">  -4038.26781595 </i>
    <i name="e_0_energy">  -4038.26766368 </i>
   </energy>
  </scstep>
  <scstep>
   <time name="total">  170.35  170.21</time>
   <energy>
    <i name="e_fr_energy">  -4039.81511627 </i>
    <i name="e_wo_entrp">  -4039.81538201 </i>
    <i name="e_0_energy">  -4039.81520485 </i>
   </energy>
  </scstep>
  <scstep>
   <time name="total">  166.83  166.69</time>
   <energy>
    <i name="e_fr_energy">  -4037.74616951 </i>
    <i name="e_wo_entrp">  -4037.74636208 </i>
    <i name="e_0_energy">  -4037.74623370 </i>
   </energy>
  </scstep>
  <scstep>
   <time name="total">  176.41  176.31</time>
   <energy>
    <i name="e_fr_energy">  -4037.79575923 </i>
    <i name="e_wo_entrp">  -4037.79597472 </i>
    <i name="e_0_energy">  -4037.79583106 </i>
   </energy>
  </scstep>
  <scstep>
   <time name="total">  168.75  168.61</time>
   <energy>
    <i name="e_fr_energy">  -4036.92928758 </i>
    <i name="e_wo_entrp">  -4036.92950123 </i>
    <i name="e_0_energy">  -4036.92935880 </i>
   </energy>
  </scstep>
  <scstep>
   <time name="total">  194.33  194.17</time>
   <energy>
    <i name="e_fr_energy">  -4036.96240990 </i>
    <i name="e_wo_entrp">  -4036.96261055 </i>
    <i name="e_0_energy">  -4036.96247679 </i>
   </energy>
  </scstep>
  <scstep>
   <time name="total">  210.14  210.01</time>
   <energy>
    <i name="e_fr_energy">  -4036.39646622 </i>
    <i name="e_wo_entrp">  -4036.39667525 </i>
    <i name="e_0_energy">  -4036.39653590 </i>
   </energy>
  </scstep>
  <scstep>
   <time name="total">  220.41  220.24</time>
   <energy>
    <i name="e_fr_energy">  -4036.77186345 </i>
    <i name="e_wo_entrp">  -4036.77207291 </i>
    <i name="e_0_energy">  -4036.77193327 </i>
   </energy>
  </scstep>
  <scstep>
   <time name="total">  214.96  214.78</time>
   <energy>
    <i name="e_fr_energy">  -4036.40525273 </i>
    <i name="e_wo_entrp">  -4036.40546208 </i>
    <i name="e_0_energy">  -4036.40532251 </i>
   </energy>
  </scstep>
  <scstep>
   <time name="total">  214.22  214.04</time>
   <energy>
    <i name="e_fr_energy">  -4036.48502074 </i>
    <i name="e_wo_entrp">  -4036.48522949 </i>
    <i name="e_0_energy">  -4036.48509032 </i>
   </energy>
  </scstep>
  <scstep>
   <time name="total">  237.71  237.51</time>
   <energy>
    <i name="e_fr_energy">  -4036.46126903 </i>
    <i name="e_wo_entrp">  -4036.46147758 </i>
    <i name="e_0_energy">  -4036.46133855 </i>
   </energy>
  </scstep>
  <scstep>
   <time name="total">  245.80  245.68</time>
   <energy>
    <i name="e_fr_energy">  -4036.43245787 </i>
    <i name="e_wo_entrp">  -4036.43266617 </i>
    <i name="e_0_energy">  -4036.43252731 </i>
   </energy>
  </scstep>
  <scstep>
   <time name="total">  258.99  258.79</time>
   <energy>
    <i name="e_fr_energy">  -4036.41880661 </i>
    <i name="e_wo_entrp">  -4036.41901498 </i>
    <i name="e_0_energy">  -4036.41887607 </i>
   </energy>
  </scstep>
  <scstep>
   <time name="total">  262.85  262.64</time>
   <energy>
    <i name="e_fr_energy">  -4036.42870784 </i>
    <i name="e_wo_entrp">  -4036.42891620 </i>
    <i name="e_0_energy">  -4036.42877730 </i>
   </energy>
  </scstep>
  <scstep>
   <time name="total">  277.96  277.73</time>
   <energy>
    <i name="e_fr_energy">  -4036.42742715 </i>
    <i name="e_wo_entrp">  -4036.42763546 </i>
    <i name="e_0_energy">  -4036.42749659 </i>
   </energy>
  </scstep>
  <kpoints>
   <generation param="Gamma">
    <v type="int" name="divisions">       3        3        3 </v>
    <v name="usershift">      0.00000000       0.00000000       0.00000000 </v>
    <v name="genvec1">      0.33333333       0.00000000       0.00000000 </v>
    <v name="genvec2">      0.00000000       0.33333333       0.00000000 </v>
    <v name="genvec3">      0.00000000       0.00000000       0.33333333 </v>
    <v name="shift">      0.00000000       0.00000000       0.00000000 </v>
   </generation>
   <varray name="kpointlist" >
    <v>       0.00000000       0.00000000       0.00000000 </v>
    <v>       0.33333333       0.00000000       0.00000000 </v>
    <v>       0.33333333       0.33333333       0.00000000 </v>
    <v>      -0.33333333       0.33333333       0.00000000 </v>
   </varray>
   <varray name="weights" >
    <v>       0.03703704 </v>
    <v>       0.29629630 </v>
    <v>       0.22222222 </v>
    <v>       0.44444444 </v>
   </varray>
  </kpoints>
  <dynmat>
   <varray name="hessian" >
    <v>      -0.17872971       0.00000000       0.00000000       0.02182605       0.02525881      -0.00000000       0.00003526       0.00006631       0.00000000       0.02182605       0.02525881       0.00000000       0.02182605       0.00000000       0.02525881       0.00119919       0.00092292       0.00092292       0.00008747       0.00092292      -0.00037116      -0.00131304       0.00000000       0.00000000       0.00003526      -0.00000000       0.00006631       0.00008747      -0.00037116       0.00092292      -0.00016117       0.00000000      -0.00000000       0.00008747      -0.00037116       0.00092292       0.02182605      -0.00000000       0.02525881      -0.00131304      -0.00000000      -0.00000000       0.00008747       0.00092292      -0.00037116       0.00119919       0.00092292       0.00092292      -0.00131304       0.00000000      -0.00000000       0.00008747       0.00092292       0.00037116       0.00119919       0.00092292      -0.00092292       0.02182605       0.00000000      -0.02525881       0.00008747       0.00037116       0.00092292       0.00020325      -0.00000000       0.00000000       0.00008747       0.00037116      -0.00092292      -0.00095345       0.00000000       0.00000000       0.00119919      -0.00092292       0.00092292       0.00008747      -0.00092292       0.00037116      -0.00049830       0.00000000       0.00000000       0.00004700       0.00000000      -0.00003123       0.02182605      -0.02525881      -0.00000000      -0.00095345       0.00000000      -0.00000000       0.00004700      -0.00003123       0.00000000       0.00236952       0.00000000       0.00000000      -0.00016117      -0.00000000       0.00000000       0.00008747      -0.00037116      -0.00092292       0.00003526       0.00000000      -0.00006631       0.00008747      -0.00037116      -0.00092292       0.00008747      -0.00092292      -0.00037116       0.00119919      -0.00092292      -0.00092292       0.00004700       0.00000000       0.00003123      -0.00049830      -0.00000000       0.00000000       0.00003526      -0.00006631      -0.00000000       0.00004700       0.00003123       0.00000000      -0.00115299       0.00000000       0.00000000       0.00004700       0.00003123       0.00000000       0.00008747      -0.00092292      -0.00037116      -0.00049830      -0.00000000      -0.00000000       0.00004700       0.00000000       0.00003123       0.00119919      -0.00092292      -0.00092292      -0.00131304      -0.00000000       0.00000000       0.02182605      -0.00000000      -0.02525881       0.00119919       0.00092292      -0.00092292       0.00008747       0.00092292       0.00037116       0.02182605      -0.02525881       0.00000000       0.00236952       0.00000000      -0.00000000       0.00004700      -0.00003123      -0.00000000      -0.00095345      -0.00000000      -0.00000000       0.00119919      -0.00092292       0.00092292       0.00004700      -0.00000000      -0.00003123      -0.00049830       0.00000000      -0.00000000       0.00008747      -0.00092292       0.00037116       0.00008747       0.00037116       0.00092292      -0.00095345       0.00000000       0.00000000       0.00008747       0.00037116      -0.00092292       0.00020325      -0.00000000       0.00000000 </v>
    <v>       0.00000000      -0.17872971       0.00000000       0.02525881       0.02182605       0.00000000       0.00006631       0.00003526       0.00000000       0.02525881       0.02182605      -0.00000000      -0.00000000      -0.00131304       0.00000000       0.00092292       0.00008747       0.00037116       0.00092292       0.00119919      -0.00092292      -0.00000000       0.02182605      -0.02525881      -0.00000000      -0.00016117       0.00000000      -0.00037116       0.00008747      -0.00092292       0.00000000       0.00003526      -0.00006631      -0.00037116       0.00008747      -0.00092292       0.00000000      -0.00131304      -0.00000000       0.00000000       0.02182605      -0.02525881       0.00092292       0.00119919      -0.00092292       0.00092292       0.00008747       0.00037116      -0.00000000       0.02182605       0.02525881       0.00092292       0.00119919       0.00092292       0.00092292       0.00008747      -0.00037116      -0.00000000      -0.00131304      -0.00000000       0.00037116       0.00008747       0.00092292      -0.00000000       0.00020325       0.00000000       0.00037116       0.00008747      -0.00092292       0.00000000      -0.00095345       0.00000000      -0.00092292       0.00008747      -0.00037116      -0.00092292       0.00119919      -0.00092292       0.00000000       0.00004700       0.00003123      -0.00000000      -0.00049830       0.00000000      -0.02525881       0.02182605      -0.00000000      -0.00000000       0.00236952       0.00000000      -0.00003123       0.00004700      -0.00000000       0.00000000      -0.00095345       0.00000000      -0.00000000       0.00003526       0.00006631      -0.00037116       0.00008747       0.00092292       0.00000000      -0.00016117      -0.00000000      -0.00037116       0.00008747       0.00092292      -0.00092292       0.00119919       0.00092292      -0.00092292       0.00008747       0.00037116       0.00000000      -0.00049830       0.00000000      -0.00000000       0.00004700      -0.00003123      -0.00006631       0.00003526      -0.00000000       0.00003123       0.00004700      -0.00000000       0.00000000      -0.00115299       0.00000000       0.00003123       0.00004700       0.00000000      -0.00092292       0.00119919       0.00092292      -0.00000000       0.00004700      -0.00003123       0.00000000      -0.00049830       0.00000000      -0.00092292       0.00008747       0.00037116       0.00000000       0.02182605       0.02525881       0.00000000      -0.00131304       0.00000000       0.00092292       0.00008747      -0.00037116       0.00092292       0.00119919       0.00092292      -0.02525881       0.02182605       0.00000000       0.00000000      -0.00095345       0.00000000      -0.00003123       0.00004700       0.00000000       0.00000000       0.00236952       0.00000000      -0.00092292       0.00008747      -0.00037116       0.00000000      -0.00049830      -0.00000000       0.00000000       0.00004700       0.00003123      -0.00092292       0.00119919      -0.00092292       0.00037116       0.00008747       0.00092292       0.00000000      -0.00095345      -0.00000000       0.00037116       0.00008747      -0.00092292      -0.00000000       0.00020325       0.00000000 </v>
    <v>       0.00000000       0.00000000      -0.17872971       0.00000000      -0.00000000      -0.00131304       0.00000000       0.00000000      -0.00016117      -0.00000000       0.00000000      -0.00131304       0.02525881      -0.00000000       0.02182605       0.00092292       0.00037116       0.00008747      -0.00037116      -0.00092292       0.00008747      -0.00000000      -0.02525881       0.02182605       0.00006631       0.00000000       0.00003526       0.00092292      -0.00092292       0.00119919      -0.00000000      -0.00006631       0.00003526       0.00092292      -0.00092292       0.00119919       0.02525881       0.00000000       0.02182605       0.00000000      -0.02525881       0.02182605      -0.00037116      -0.00092292       0.00008747       0.00092292       0.00037116       0.00008747       0.00000000       0.02525881       0.02182605       0.00037116       0.00092292       0.00008747      -0.00092292      -0.00037116       0.00008747      -0.02525881       0.00000000       0.02182605       0.00092292       0.00092292       0.00119919       0.00000000       0.00000000       0.00020325      -0.00092292      -0.00092292       0.00119919       0.00000000      -0.00000000       0.00236952       0.00092292      -0.00037116       0.00008747       0.00037116      -0.00092292       0.00008747      -0.00000000       0.00003123       0.00004700      -0.00003123      -0.00000000       0.00004700       0.00000000       0.00000000      -0.00131304      -0.00000000       0.00000000      -0.00095345      -0.00000000       0.00000000      -0.00049830      -0.00000000       0.00000000      -0.00095345       0.00000000       0.00006631       0.00003526      -0.00092292       0.00092292       0.00119919      -0.00006631      -0.00000000       0.00003526      -0.00092292       0.00092292       0.00119919      -0.00037116       0.00092292       0.00008747      -0.00092292       0.00037116       0.00008747       0.00003123       0.00000000       0.00004700      -0.00000000      -0.00003123       0.00004700      -0.00000000      -0.00000000      -0.00016117       0.00000000       0.00000000      -0.00049830       0.00000000       0.00000000      -0.00115299       0.00000000      -0.00000000      -0.00049830      -0.00037116       0.00092292       0.00008747       0.00000000      -0.00003123       0.00004700       0.00003123       0.00000000       0.00004700      -0.00092292       0.00037116       0.00008747      -0.00000000       0.02525881       0.02182605      -0.02525881      -0.00000000       0.02182605      -0.00092292      -0.00037116       0.00008747       0.00037116       0.00092292       0.00008747      -0.00000000      -0.00000000      -0.00131304       0.00000000       0.00000000      -0.00095345       0.00000000      -0.00000000      -0.00049830      -0.00000000       0.00000000      -0.00095345       0.00092292      -0.00037116       0.00008747      -0.00003123       0.00000000       0.00004700       0.00000000       0.00003123       0.00004700       0.00037116      -0.00092292       0.00008747       0.00092292       0.00092292       0.00119919       0.00000000       0.00000000       0.00236952      -0.00092292      -0.00092292       0.00119919       0.00000000       0.00000000       0.00020325 </v>
    <v>       0.02182605       0.02525881       0.00000000      -0.17872971       0.00000000       0.00000000       0.02182605       0.02525881      -0.00000000       0.00003526       0.00006631       0.00000000      -0.00131304       0.00000000       0.00000000       0.02182605       0.00000000       0.02525881       0.00119919       0.00092292       0.00092292       0.00008747       0.00092292      -0.00037116       0.00008747      -0.00037116       0.00092292       0.00003526      -0.00000000       0.00006631       0.00008747      -0.00037116       0.00092292      -0.00016117       0.00000000      -0.00000000       0.00119919       0.00092292       0.00092292       0.02182605      -0.00000000       0.02525881      -0.00131304      -0.00000000      -0.00000000       0.00008747       0.00092292      -0.00037116       0.02182605       0.00000000      -0.02525881      -0.00131304       0.00000000      -0.00000000       0.00008747       0.00092292       0.00037116       0.00119919       0.00092292      -0.00092292      -0.00095345       0.00000000       0.00000000       0.00008747       0.00037116       0.00092292       0.00020325      -0.00000000       0.00000000       0.00008747       0.00037116      -0.00092292       0.00004700       0.00000000      -0.00003123       0.00119919      -0.00092292       0.00092292       0.00008747      -0.00092292       0.00037116      -0.00049830       0.00000000       0.00000000       0.00236952       0.00000000       0.00000000       0.02182605      -0.02525881      -0.00000000      -0.00095345       0.00000000      -0.00000000       0.00004700      -0.00003123       0.00000000       0.00008747      -0.00037116      -0.00092292      -0.00016117      -0.00000000       0.00000000       0.00008747      -0.00037116      -0.00092292       0.00003526       0.00000000      -0.00006631      -0.00049830      -0.00000000       0.00000000       0.00008747      -0.00092292      -0.00037116       0.00119919      -0.00092292      -0.00092292       0.00004700       0.00000000       0.00003123       0.00004700       0.00003123       0.00000000       0.00003526      -0.00006631      -0.00000000       0.00004700       0.00003123       0.00000000      -0.00115299       0.00000000       0.00000000       0.00119919      -0.00092292      -0.00092292       0.00008747      -0.00092292      -0.00037116      -0.00049830      -0.00000000      -0.00000000       0.00004700       0.00000000       0.00003123       0.00008747       0.00092292       0.00037116      -0.00131304      -0.00000000       0.00000000       0.02182605      -0.00000000      -0.02525881       0.00119919       0.00092292      -0.00092292      -0.00095345      -0.00000000      -0.00000000       0.02182605      -0.02525881       0.00000000       0.00236952       0.00000000      -0.00000000       0.00004700      -0.00003123      -0.00000000       0.00008747      -0.00092292       0.00037116       0.00119919      -0.00092292       0.00092292       0.00004700      -0.00000000      -0.00003123      -0.00049830       0.00000000      -0.00000000       0.00020325      -0.00000000       0.00000000       0.00008747       0.00037116       0.00092292      -0.00095345       0.00000000       0.00000000       0.00008747       0.00037116      -0.00092292 </v>
    <v>       0.02525881       0.02182605      -0.00000000       0.00000000      -0.17872971       0.00000000       0.02525881       0.02182605       0.00000000       0.00006631       0.00003526       0.00000000      -0.00000000       0.02182605      -0.02525881      -0.00000000      -0.00131304       0.00000000       0.00092292       0.00008747       0.00037116       0.00092292       0.00119919      -0.00092292      -0.00037116       0.00008747      -0.00092292      -0.00000000      -0.00016117       0.00000000      -0.00037116       0.00008747      -0.00092292       0.00000000       0.00003526      -0.00006631       0.00092292       0.00008747       0.00037116       0.00000000      -0.00131304      -0.00000000       0.00000000       0.02182605      -0.02525881       0.00092292       0.00119919      -0.00092292      -0.00000000      -0.00131304      -0.00000000      -0.00000000       0.02182605       0.02525881       0.00092292       0.00119919       0.00092292       0.00092292       0.00008747      -0.00037116       0.00000000      -0.00095345       0.00000000       0.00037116       0.00008747       0.00092292      -0.00000000       0.00020325       0.00000000       0.00037116       0.00008747      -0.00092292      -0.00000000      -0.00049830       0.00000000      -0.00092292       0.00008747      -0.00037116      -0.00092292       0.00119919      -0.00092292       0.00000000       0.00004700       0.00003123       0.00000000      -0.00095345       0.00000000      -0.02525881       0.02182605      -0.00000000      -0.00000000       0.00236952       0.00000000      -0.00003123       0.00004700      -0.00000000      -0.00037116       0.00008747       0.00092292      -0.00000000       0.00003526       0.00006631      -0.00037116       0.00008747       0.00092292       0.00000000      -0.00016117      -0.00000000      -0.00000000       0.00004700      -0.00003123      -0.00092292       0.00119919       0.00092292      -0.00092292       0.00008747       0.00037116       0.00000000      -0.00049830       0.00000000       0.00003123       0.00004700       0.00000000      -0.00006631       0.00003526      -0.00000000       0.00003123       0.00004700      -0.00000000       0.00000000      -0.00115299       0.00000000      -0.00092292       0.00008747       0.00037116      -0.00092292       0.00119919       0.00092292      -0.00000000       0.00004700      -0.00003123       0.00000000      -0.00049830       0.00000000       0.00092292       0.00119919       0.00092292       0.00000000       0.02182605       0.02525881       0.00000000      -0.00131304       0.00000000       0.00092292       0.00008747      -0.00037116       0.00000000       0.00236952       0.00000000      -0.02525881       0.02182605       0.00000000       0.00000000      -0.00095345       0.00000000      -0.00003123       0.00004700       0.00000000      -0.00092292       0.00119919      -0.00092292      -0.00092292       0.00008747      -0.00037116       0.00000000      -0.00049830      -0.00000000       0.00000000       0.00004700       0.00003123      -0.00000000       0.00020325       0.00000000       0.00037116       0.00008747       0.00092292       0.00000000      -0.00095345      -0.00000000       0.00037116       0.00008747      -0.00092292 </v>
    <v>      -0.00000000       0.00000000      -0.00131304       0.00000000       0.00000000      -0.17872971       0.00000000      -0.00000000      -0.00131304       0.00000000       0.00000000      -0.00016117      -0.00000000      -0.02525881       0.02182605       0.02525881      -0.00000000       0.02182605       0.00092292       0.00037116       0.00008747      -0.00037116      -0.00092292       0.00008747       0.00092292      -0.00092292       0.00119919       0.00006631       0.00000000       0.00003526       0.00092292      -0.00092292       0.00119919      -0.00000000      -0.00006631       0.00003526       0.00092292       0.00037116       0.00008747       0.02525881       0.00000000       0.02182605       0.00000000      -0.02525881       0.02182605      -0.00037116      -0.00092292       0.00008747      -0.02525881       0.00000000       0.02182605       0.00000000       0.02525881       0.02182605       0.00037116       0.00092292       0.00008747      -0.00092292      -0.00037116       0.00008747       0.00000000      -0.00000000       0.00236952       0.00092292       0.00092292       0.00119919       0.00000000       0.00000000       0.00020325      -0.00092292      -0.00092292       0.00119919      -0.00003123      -0.00000000       0.00004700       0.00092292      -0.00037116       0.00008747       0.00037116      -0.00092292       0.00008747      -0.00000000       0.00003123       0.00004700      -0.00000000       0.00000000      -0.00095345       0.00000000       0.00000000      -0.00131304      -0.00000000       0.00000000      -0.00095345      -0.00000000       0.00000000      -0.00049830      -0.00092292       0.00092292       0.00119919       0.00000000       0.00006631       0.00003526      -0.00092292       0.00092292       0.00119919      -0.00006631      -0.00000000       0.00003526      -0.00000000      -0.00003123       0.00004700      -0.00037116       0.00092292       0.00008747      -0.00092292       0.00037116       0.00008747       0.00003123       0.00000000       0.00004700       0.00000000      -0.00000000      -0.00049830      -0.00000000      -0.00000000      -0.00016117       0.00000000       0.00000000      -0.00049830       0.00000000       0.00000000      -0.00115299      -0.00092292       0.00037116       0.00008747      -0.00037116       0.00092292       0.00008747       0.00000000      -0.00003123       0.00004700       0.00003123       0.00000000       0.00004700       0.00037116       0.00092292       0.00008747      -0.00000000       0.02525881       0.02182605      -0.02525881      -0.00000000       0.02182605      -0.00092292      -0.00037116       0.00008747      -0.00000000       0.00000000      -0.00095345      -0.00000000      -0.00000000      -0.00131304       0.00000000       0.00000000      -0.00095345       0.00000000      -0.00000000      -0.00049830       0.00037116      -0.00092292       0.00008747       0.00092292      -0.00037116       0.00008747      -0.00003123       0.00000000       0.00004700       0.00000000       0.00003123       0.00004700       0.00000000       0.00000000       0.00020325       0.00092292       0.00092292       0.00119919       0.00000000       0.00000000       0.00236952      -0.00092292      -0.00092292       0.00119919 </v>
    <v>       0.00003526       0.00006631       0.00000000       0.02182605       0.02525881       0.00000000      -0.17872971       0.00000000       0.00000000       0.02182605       0.02525881      -0.00000000       0.00008747       0.00092292      -0.00037116      -0.00131304       0.00000000       0.00000000       0.02182605       0.00000000       0.02525881       0.00119919       0.00092292       0.00092292      -0.00016117       0.00000000      -0.00000000       0.00008747      -0.00037116       0.00092292       0.00003526      -0.00000000       0.00006631       0.00008747      -0.00037116       0.00092292       0.00008747       0.00092292      -0.00037116       0.00119919       0.00092292       0.00092292       0.02182605      -0.00000000       0.02525881      -0.00131304      -0.00000000      -0.00000000       0.00119919       0.00092292      -0.00092292       0.02182605       0.00000000      -0.02525881      -0.00131304       0.00000000      -0.00000000       0.00008747       0.00092292       0.00037116       0.00008747       0.00037116      -0.00092292      -0.00095345       0.00000000       0.00000000       0.00008747       0.00037116       0.00092292       0.00020325      -0.00000000       0.00000000      -0.00049830       0.00000000       0.00000000       0.00004700       0.00000000      -0.00003123       0.00119919      -0.00092292       0.00092292       0.00008747      -0.00092292       0.00037116       0.00004700      -0.00003123       0.00000000       0.00236952       0.00000000       0.00000000       0.02182605      -0.02525881      -0.00000000      -0.00095345       0.00000000      -0.00000000       0.00003526       0.00000000      -0.00006631       0.00008747      -0.00037116      -0.00092292      -0.00016117      -0.00000000       0.00000000       0.00008747      -0.00037116      -0.00092292       0.00004700       0.00000000       0.00003123      -0.00049830      -0.00000000       0.00000000       0.00008747      -0.00092292      -0.00037116       0.00119919      -0.00092292      -0.00092292      -0.00115299       0.00000000       0.00000000       0.00004700       0.00003123       0.00000000       0.00003526      -0.00006631      -0.00000000       0.00004700       0.00003123       0.00000000       0.00004700       0.00000000       0.00003123       0.00119919      -0.00092292      -0.00092292       0.00008747      -0.00092292      -0.00037116      -0.00049830      -0.00000000      -0.00000000       0.00119919       0.00092292      -0.00092292       0.00008747       0.00092292       0.00037116      -0.00131304      -0.00000000       0.00000000       0.02182605      -0.00000000      -0.02525881       0.00004700      -0.00003123      -0.00000000      -0.00095345      -0.00000000      -0.00000000       0.02182605      -0.02525881       0.00000000       0.00236952       0.00000000      -0.00000000      -0.00049830       0.00000000      -0.00000000       0.00008747      -0.00092292       0.00037116       0.00119919      -0.00092292       0.00092292       0.00004700      -0.00000000      -0.00003123       0.00008747       0.00037116      -0.00092292       0.00020325      -0.00000000       0.00000000       0.00008747       0.00037116       0.00092292      -0.00095345       0.00000000       0.00000000 </v>
    <v>       0.00006631       0.00003526       0.00000000       0.02525881       0.02182605      -0.00000000       0.00000000      -0.17872971       0.00000000       0.02525881       0.02182605       0.00000000       0.00092292       0.00119919      -0.00092292      -0.00000000       0.02182605      -0.02525881      -0.00000000      -0.00131304       0.00000000       0.00092292       0.00008747       0.00037116       0.00000000       0.00003526      -0.00006631      -0.00037116       0.00008747      -0.00092292      -0.00000000      -0.00016117       0.00000000      -0.00037116       0.00008747      -0.00092292       0.00092292       0.00119919      -0.00092292       0.00092292       0.00008747       0.00037116       0.00000000      -0.00131304      -0.00000000       0.00000000       0.02182605      -0.02525881       0.00092292       0.00008747      -0.00037116      -0.00000000      -0.00131304      -0.00000000      -0.00000000       0.02182605       0.02525881       0.00092292       0.00119919       0.00092292       0.00037116       0.00008747      -0.00092292       0.00000000      -0.00095345       0.00000000       0.00037116       0.00008747       0.00092292      -0.00000000       0.00020325       0.00000000       0.00000000       0.00004700       0.00003123      -0.00000000      -0.00049830       0.00000000      -0.00092292       0.00008747      -0.00037116      -0.00092292       0.00119919      -0.00092292      -0.00003123       0.00004700      -0.00000000       0.00000000      -0.00095345       0.00000000      -0.02525881       0.02182605      -0.00000000      -0.00000000       0.00236952       0.00000000       0.00000000      -0.00016117      -0.00000000      -0.00037116       0.00008747       0.00092292      -0.00000000       0.00003526       0.00006631      -0.00037116       0.00008747       0.00092292       0.00000000      -0.00049830       0.00000000      -0.00000000       0.00004700      -0.00003123      -0.00092292       0.00119919       0.00092292      -0.00092292       0.00008747       0.00037116       0.00000000      -0.00115299       0.00000000       0.00003123       0.00004700       0.00000000      -0.00006631       0.00003526      -0.00000000       0.00003123       0.00004700      -0.00000000       0.00000000      -0.00049830       0.00000000      -0.00092292       0.00008747       0.00037116      -0.00092292       0.00119919       0.00092292      -0.00000000       0.00004700      -0.00003123       0.00092292       0.00008747      -0.00037116       0.00092292       0.00119919       0.00092292       0.00000000       0.02182605       0.02525881       0.00000000      -0.00131304       0.00000000      -0.00003123       0.00004700       0.00000000       0.00000000       0.00236952       0.00000000      -0.02525881       0.02182605       0.00000000       0.00000000      -0.00095345       0.00000000       0.00000000       0.00004700       0.00003123      -0.00092292       0.00119919      -0.00092292      -0.00092292       0.00008747      -0.00037116       0.00000000      -0.00049830      -0.00000000       0.00037116       0.00008747      -0.00092292      -0.00000000       0.00020325       0.00000000       0.00037116       0.00008747       0.00092292       0.00000000      -0.00095345      -0.00000000 </v>
    <v>       0.00000000       0.00000000      -0.00016117      -0.00000000       0.00000000      -0.00131304       0.00000000       0.00000000      -0.17872971       0.00000000      -0.00000000      -0.00131304      -0.00037116      -0.00092292       0.00008747      -0.00000000      -0.02525881       0.02182605       0.02525881      -0.00000000       0.02182605       0.00092292       0.00037116       0.00008747      -0.00000000      -0.00006631       0.00003526       0.00092292      -0.00092292       0.00119919       0.00006631       0.00000000       0.00003526       0.00092292      -0.00092292       0.00119919      -0.00037116      -0.00092292       0.00008747       0.00092292       0.00037116       0.00008747       0.02525881       0.00000000       0.02182605       0.00000000      -0.02525881       0.02182605      -0.00092292      -0.00037116       0.00008747      -0.02525881       0.00000000       0.02182605       0.00000000       0.02525881       0.02182605       0.00037116       0.00092292       0.00008747      -0.00092292      -0.00092292       0.00119919       0.00000000      -0.00000000       0.00236952       0.00092292       0.00092292       0.00119919       0.00000000       0.00000000       0.00020325      -0.00000000       0.00003123       0.00004700      -0.00003123      -0.00000000       0.00004700       0.00092292      -0.00037116       0.00008747       0.00037116      -0.00092292       0.00008747      -0.00000000       0.00000000      -0.00049830      -0.00000000       0.00000000      -0.00095345       0.00000000       0.00000000      -0.00131304      -0.00000000       0.00000000      -0.00095345      -0.00006631      -0.00000000       0.00003526      -0.00092292       0.00092292       0.00119919       0.00000000       0.00006631       0.00003526      -0.00092292       0.00092292       0.00119919       0.00003123       0.00000000       0.00004700      -0.00000000      -0.00003123       0.00004700      -0.00037116       0.00092292       0.00008747      -0.00092292       0.00037116       0.00008747       0.00000000       0.00000000      -0.00115299       0.00000000      -0.00000000      -0.00049830      -0.00000000      -0.00000000      -0.00016117       0.00000000       0.00000000      -0.00049830       0.00003123       0.00000000       0.00004700      -0.00092292       0.00037116       0.00008747      -0.00037116       0.00092292       0.00008747       0.00000000      -0.00003123       0.00004700      -0.00092292      -0.00037116       0.00008747       0.00037116       0.00092292       0.00008747      -0.00000000       0.02525881       0.02182605      -0.02525881      -0.00000000       0.02182605       0.00000000      -0.00000000      -0.00049830      -0.00000000       0.00000000      -0.00095345      -0.00000000      -0.00000000      -0.00131304       0.00000000       0.00000000      -0.00095345       0.00000000       0.00003123       0.00004700       0.00037116      -0.00092292       0.00008747       0.00092292      -0.00037116       0.00008747      -0.00003123       0.00000000       0.00004700      -0.00092292      -0.00092292       0.00119919       0.00000000       0.00000000       0.00020325       0.00092292       0.00092292       0.00119919       0.00000000       0.00000000       0.00236952 </v>
    <v>       0.02182605       0.02525881      -0.00000000       0.00003526       0.00006631       0.00000000       0.02182605       0.02525881       0.00000000      -0.17872971       0.00000000       0.00000000       0.00119919       0.00092292       0.00092292       0.00008747       0.00092292      -0.00037116      -0.00131304       0.00000000       0.00000000       0.02182605       0.00000000       0.02525881       0.00008747      -0.00037116       0.00092292      -0.00016117       0.00000000      -0.00000000       0.00008747      -0.00037116       0.00092292       0.00003526      -0.00000000       0.00006631      -0.00131304      -0.00000000      -0.00000000       0.00008747       0.00092292      -0.00037116       0.00119919       0.00092292       0.00092292       0.02182605      -0.00000000       0.02525881       0.00008747       0.00092292       0.00037116       0.00119919       0.00092292      -0.00092292       0.02182605       0.00000000      -0.02525881      -0.00131304       0.00000000      -0.00000000       0.00020325      -0.00000000       0.00000000       0.00008747       0.00037116      -0.00092292      -0.00095345       0.00000000       0.00000000       0.00008747       0.00037116       0.00092292       0.00008747      -0.00092292       0.00037116      -0.00049830       0.00000000       0.00000000       0.00004700       0.00000000      -0.00003123       0.00119919      -0.00092292       0.00092292      -0.00095345       0.00000000      -0.00000000       0.00004700      -0.00003123       0.00000000       0.00236952       0.00000000       0.00000000       0.02182605      -0.02525881      -0.00000000       0.00008747      -0.00037116      -0.00092292       0.00003526       0.00000000      -0.00006631       0.00008747      -0.00037116      -0.00092292      -0.00016117      -0.00000000       0.00000000       0.00119919      -0.00092292      -0.00092292       0.00004700       0.00000000       0.00003123      -0.00049830      -0.00000000       0.00000000       0.00008747      -0.00092292      -0.00037116       0.00004700       0.00003123       0.00000000      -0.00115299       0.00000000       0.00000000       0.00004700       0.00003123       0.00000000       0.00003526      -0.00006631      -0.00000000      -0.00049830      -0.00000000      -0.00000000       0.00004700       0.00000000       0.00003123       0.00119919      -0.00092292      -0.00092292       0.00008747      -0.00092292      -0.00037116       0.02182605      -0.00000000      -0.02525881       0.00119919       0.00092292      -0.00092292       0.00008747       0.00092292       0.00037116      -0.00131304      -0.00000000       0.00000000       0.00236952       0.00000000      -0.00000000       0.00004700      -0.00003123      -0.00000000      -0.00095345      -0.00000000      -0.00000000       0.02182605      -0.02525881       0.00000000       0.00004700      -0.00000000      -0.00003123      -0.00049830       0.00000000      -0.00000000       0.00008747      -0.00092292       0.00037116       0.00119919      -0.00092292       0.00092292      -0.00095345       0.00000000       0.00000000       0.00008747       0.00037116      -0.00092292       0.00020325      -0.00000000       0.00000000       0.00008747       0.00037116       0.00092292 </v>
[...]
       <r>    24.1204     0.0000   648.0000 </r>
       <r>    24.4074     0.0000   648.0000 </r>
       <r>    24.6944     0.0000   648.0000 </r>
       <r>    24.9815     0.0000   648.0000 </r>
       <r>    25.2685     0.0000   648.0000 </r>
       <r>    25.5555     0.0000   648.0000 </r>
       <r>    25.8426     0.0000   648.0000 </r>
       <r>    26.1296     0.0000   648.0000 </r>
       <r>    26.4166     0.0000   648.0000 </r>
      </set>
      <set comment="spin 2">
       <r>   -59.6924     0.0000     0.0000 </r>
       <r>   -59.4053     0.0000     0.0000 </r>
       <r>   -59.1183     0.0000     0.0000 </r>
       <r>   -58.8313     0.0000     0.0000 </r>
       <r>   -58.5442     0.0000     0.0000 </r>
       <r>   -58.2572     0.0000     0.0000 </r>
       <r>   -57.9702     0.0000     0.0000 </r>
       <r>   -57.6832     0.0000     0.0000 </r>
       <r>   -57.3961     0.0000     0.0000 </r>
       <r>   -57.1091     0.0000     0.0000 </r>
       <r>   -56.8221     0.0000     0.0000 </r>
       <r>   -56.5350    -0.0000    -0.0000 </r>
       <r>   -56.2480    -0.0000    -0.0000 </r>
       <r>   -55.9610    -0.0000    -0.0000 </r>
       <r>   -55.6739    -0.0000    -0.0000 </r>
       <r>   -55.3869    -0.2364    -0.0679 </r>
       <r>   -55.0999   -13.4562    -3.9302 </r>
       <r>   -54.8129   280.6934    76.6372 </r>
       <r>   -54.5258   417.1510   196.3720 </r>
       <r>   -54.2388   -14.6347   192.1715 </r>
       <r>   -53.9518    -0.5972   192.0000 </r>
       <r>   -53.6647    -0.0001   192.0000 </r>
       <r>   -53.3777    -0.0000   192.0000 </r>
       <r>   -53.0907     0.0000   192.0000 </r>
       <r>   -52.8036     0.0000   192.0000 </r>
       <r>   -52.5166     0.0000   192.0000 </r>
       <r>   -52.2296     0.0000   192.0000 </r>
       <r>   -51.9426     0.0000   192.0000 </r>
       <r>   -51.6555     0.0000   192.0000 </r>
       <r>   -51.3685     0.0000   192.0000 </r>
       <r>   -51.0815     0.0000   192.0000 </r>
       <r>   -50.7944     0.0000   192.0000 </r>
       <r>   -50.5074     0.0000   192.0000 </r>
       <r>   -50.2204     0.0000   192.0000 </r>
       <r>   -49.9333     0.0000   192.0000 </r>
       <r>   -49.6463     0.0000   192.0000 </r>
       <r>   -49.3593     0.0000   192.0000 </r>
       <r>   -49.0723     0.0000   192.0000 </r>
       <r>   -48.7852     0.0000   192.0000 </r>
       <r>   -48.4982     0.0000   192.0000 </r>
       <r>   -48.2112     0.0000   192.0000 </r>
       <r>   -47.9241     0.0000   192.0000 </r>
       <r>   -47.6371     0.0000   192.0000 </r>
       <r>   -47.3501     0.0000   192.0000 </r>
       <r>   -47.0630     0.0000   192.0000 </r>
       <r>   -46.7760     0.0000   192.0000 </r>
       <r>   -46.4890     0.0000   192.0000 </r>
       <r>   -46.2020     0.0000   192.0000 </r>
       <r>   -45.9149     0.0000   192.0000 </r>
       <r>   -45.6279     0.0000   192.0000 </r>
       <r>   -45.3409     0.0000   192.0000 </r>
       <r>   -45.0538     0.0000   192.0000 </r>
       <r>   -44.7668     0.0000   192.0000 </r>
       <r>   -44.4798     0.0000   192.0000 </r>
       <r>   -44.1927     0.0000   192.0000 </r>
       <r>   -43.9057     0.0000   192.0000 </r>
       <r>   -43.6187     0.0000   192.0000 </r>
       <r>   -43.3317     0.0000   192.0000 </r>
       <r>   -43.0446     0.0000   192.0000 </r>
       <r>   -42.7576     0.0000   192.0000 </r>
       <r>   -42.4706     0.0000   192.0000 </r>
       <r>   -42.1835     0.0000   192.0000 </r>
       <r>   -41.8965     0.0000   192.0000 </r>
       <r>   -41.6095     0.0000   192.0000 </r>
       <r>   -41.3224     0.0000   192.0000 </r>
       <r>   -41.0354     0.0000   192.0000 </r>
       <r>   -40.7484     0.0000   192.0000 </r>
       <r>   -40.4614     0.0000   192.0000 </r>
       <r>   -40.1743     0.0000   192.0000 </r>
       <r>   -39.8873     0.0000   192.0000 </r>
       <r>   -39.6003     0.0000   192.0000 </r>
       <r>   -39.3132     0.0000   192.0000 </r>
       <r>   -39.0262     0.0000   192.0000 </r>
       <r>   -38.7392     0.0000   192.0000 </r>
       <r>   -38.4521     0.0000   192.0000 </r>
       <r>   -38.1651     0.0000   192.0000 </r>
       <r>   -37.8781     0.0000   192.0000 </r>
       <r>   -37.5911     0.0000   192.0000 </r>
       <r>   -37.3040     0.0000   192.0000 </r>
       <r>   -37.0170     0.0000   192.0000 </r>
       <r>   -36.7300     0.0000   192.0000 </r>
       <r>   -36.4429     0.0000   192.0000 </r>
       <r>   -36.1559     0.0000   192.0000 </r>
       <r>   -35.8689     0.0000   192.0000 </r>
       <r>   -35.5818     0.0000   192.0000 </r>
       <r>   -35.2948     0.0000   192.0000 </r>
       <r>   -35.0078     0.0000   192.0000 </r>
       <r>   -34.7208     0.0000   192.0000 </r>
       <r>   -34.4337     0.0000   192.0000 </r>
       <r>   -34.1467     0.0000   192.0000 </r>
       <r>   -33.8597     0.0000   192.0000 </r>
       <r>   -33.5726     0.0000   192.0000 </r>
       <r>   -33.2856     0.0000   192.0000 </r>
       <r>   -32.9986     0.0000   192.0000 </r>
       <r>   -32.7115     0.0000   192.0000 </r>
       <r>   -32.4245     0.0000   192.0000 </r>
       <r>   -32.1375     0.0000   192.0000 </r>
       <r>   -31.8505     0.0000   192.0000 </r>
       <r>   -31.5634     0.0000   192.0000 </r>
       <r>   -31.2764     0.0000   192.0000 </r>
       <r>   -30.9894     0.0000   192.0000 </r>
       <r>   -30.7023     0.0000   192.0000 </r>
       <r>   -30.4153     0.0000   192.0000 </r>
       <r>   -30.1283     0.0000   192.0000 </r>
       <r>   -29.8412     0.0000   192.0000 </r>
       <r>   -29.5542     0.0000   192.0000 </r>
       <r>   -29.2672     0.0000   192.0000 </r>
       <r>   -28.9802     0.0000   192.0000 </r>
       <r>   -28.6931     0.0000   192.0000 </r>
       <r>   -28.4061     0.0000   192.0000 </r>
       <r>   -28.1191     0.0000   192.0000 </r>
       <r>   -27.8320     0.0000   192.0000 </r>
       <r>   -27.5450     0.0000   192.0000 </r>
       <r>   -27.2580     0.0000   192.0000 </r>
       <r>   -26.9709     0.0000   192.0000 </r>
       <r>   -26.6839     0.0000   192.0000 </r>
       <r>   -26.3969     0.0000   192.0000 </r>
       <r>   -26.1099     0.0000   192.0000 </r>
       <r>   -25.8228     0.0000   192.0000 </r>
       <r>   -25.5358     0.0000   192.0000 </r>
       <r>   -25.2488     0.0000   192.0000 </r>
       <r>   -24.9617     0.0000   192.0000 </r>
       <r>   -24.6747     0.0000   192.0000 </r>
       <r>   -24.3877     0.0000   192.0000 </r>
       <r>   -24.1007     0.0000   192.0000 </r>
       <r>   -23.8136     0.0000   192.0000 </r>
       <r>   -23.5266     0.0000   192.0000 </r>
       <r>   -23.2396     0.0000   192.0000 </r>
       <r>   -22.9525     0.0000   192.0000 </r>
       <r>   -22.6655     0.0000   192.0000 </r>
       <r>   -22.3785     0.0000   192.0000 </r>
       <r>   -22.0914     0.0000   192.0000 </r>
       <r>   -21.8044     0.0000   192.0000 </r>
       <r>   -21.5174     0.0000   192.0000 </r>
       <r>   -21.2304     0.0000   192.0000 </r>
       <r>   -20.9433     0.0000   192.0000 </r>
       <r>   -20.6563     0.0000   192.0000 </r>
       <r>   -20.3693     0.0000   192.0000 </r>
       <r>   -20.0822     0.0000   192.0000 </r>
       <r>   -19.7952     0.0000   192.0000 </r>
       <r>   -19.5082     0.0000   192.0000 </r>
       <r>   -19.2211     0.0000   192.0000 </r>
       <r>   -18.9341     0.0000   192.0000 </r>
       <r>   -18.6471     0.0000   192.0000 </r>
       <r>   -18.3601     0.0000   192.0000 </r>
       <r>   -18.0730     0.0000   192.0000 </r>
       <r>   -17.7860     0.0000   192.0000 </r>
       <r>   -17.4990     0.0000   192.0000 </r>
       <r>   -17.2119     0.0000   192.0000 </r>
       <r>   -16.9249     0.0000   192.0000 </r>
       <r>   -16.6379     0.0000   192.0000 </r>
       <r>   -16.3508     0.0000   192.0000 </r>
       <r>   -16.0638     0.0000   192.0000 </r>
       <r>   -15.7768     0.0000   192.0000 </r>
       <r>   -15.4898     0.0000   192.0000 </r>
       <r>   -15.2027     0.0000   192.0000 </r>
       <r>   -14.9157     0.0000   192.0000 </r>
       <r>   -14.6287     0.0000   192.0000 </r>
       <r>   -14.3416     0.0000   192.0000 </r>
       <r>   -14.0546     0.0000   192.0000 </r>
       <r>   -13.7676     0.0000   192.0000 </r>
       <r>   -13.4805     0.0000   192.0000 </r>
       <r>   -13.1935     0.0000   192.0000 </r>
       <r>   -12.9065     0.0000   192.0000 </r>
       <r>   -12.6195     0.0000   192.0000 </r>
       <r>   -12.3324     0.0000   192.0000 </r>
       <r>   -12.0454     0.0000   192.0000 </r>
       <r>   -11.7584     0.0000   192.0000 </r>
       <r>   -11.4713     0.0000   192.0000 </r>
       <r>   -11.1843     0.0000   192.0000 </r>
       <r>   -10.8973     0.0000   192.0000 </r>
       <r>   -10.6102     0.0000   192.0000 </r>
       <r>   -10.3232     0.0000   192.0000 </r>
       <r>   -10.0362     0.0000   192.0000 </r>
       <r>    -9.7492     0.0000   192.0000 </r>
       <r>    -9.4621     0.0000   192.0000 </r>
       <r>    -9.1751     0.0000   192.0000 </r>
       <r>    -8.8881     0.0000   192.0000 </r>
       <r>    -8.6010     0.0000   192.0000 </r>
       <r>    -8.3140     0.0000   192.0000 </r>
       <r>    -8.0270     0.0000   192.0000 </r>
       <r>    -7.7399     0.0000   192.0000 </r>
       <r>    -7.4529     0.0000   192.0000 </r>
       <r>    -7.1659     0.0000   192.0000 </r>
       <r>    -6.8789     0.0000   192.0000 </r>
       <r>    -6.5918     0.0000   192.0000 </r>
       <r>    -6.3048     0.0000   192.0000 </r>
       <r>    -6.0178     0.0000   192.0000 </r>
       <r>    -5.7307     0.0000   192.0000 </r>
       <r>    -5.4437     0.0000   192.0000 </r>
       <r>    -5.1567     0.0000   192.0000 </r>
       <r>    -4.8696     0.0000   192.0000 </r>
       <r>    -4.5826     0.0000   192.0000 </r>
       <r>    -4.2956     0.0000   192.0000 </r>
       <r>    -4.0086     0.0000   192.0000 </r>
       <r>    -3.7215     0.0000   192.0000 </r>
       <r>    -3.4345     0.0000   192.0000 </r>
       <r>    -3.1475     0.0000   192.0000 </r>
       <r>    -2.8604    -0.0000   192.0000 </r>
       <r>    -2.5734    -0.0000   192.0000 </r>
       <r>    -2.2864    -0.0000   192.0000 </r>
       <r>    -1.9993    -0.0000   192.0000 </r>
       <r>    -1.7123    -0.0000   192.0000 </r>
       <r>    -1.4253    -0.0007   191.9998 </r>
       <r>    -1.1383    -0.0005   191.9997 </r>
       <r>    -0.8512     0.1616   192.0461 </r>
       <r>    -0.5642     1.5298   192.4851 </r>
       <r>    -0.2772     0.8410   192.7265 </r>
       <r>     0.0099     2.8286   193.5384 </r>
       <r>     0.2969     2.3683   194.2182 </r>
       <r>     0.5839     0.8984   194.4761 </r>
       <r>     0.8710     5.4002   196.0261 </r>
       <r>     1.1580     2.8420   196.8418 </r>
       <r>     1.4450     4.4816   198.1282 </r>
       <r>     1.7320     0.8775   198.3800 </r>
       <r>     2.0191     8.1331   200.7145 </r>
       <r>     2.3061     4.9961   202.1485 </r>
       <r>     2.5931     6.5104   204.0172 </r>
       <r>     2.8802     2.9231   204.8562 </r>
       <r>     3.1672     9.8130   207.6728 </r>
       <r>     3.4542    13.9593   211.6795 </r>
       <r>     3.7413    12.4259   215.2461 </r>
       <r>     4.0283    23.1708   221.8968 </r>
       <r>     4.3153    39.0189   233.0964 </r>
       <r>     4.6023    24.7842   240.2102 </r>
       <r>     4.8894    52.5173   255.2843 </r>
       <r>     5.1764    52.7518   270.4256 </r>
       <r>     5.4634    47.4018   284.0314 </r>
       <r>     5.7505    49.7026   298.2975 </r>
       <r>     6.0375    61.6480   315.9923 </r>
       <r>     6.3245    71.6201   336.5494 </r>
       <r>     6.6116    83.0447   360.3857 </r>
       <r>     6.8986    88.1061   385.6748 </r>
       <r>     7.1856    64.2996   404.1307 </r>
       <r>     7.4726    63.5301   422.3658 </r>
       <r>     7.7597    82.6005   446.0746 </r>
       <r>     8.0467    63.9266   464.4234 </r>
       <r>     8.3337    76.3455   486.3369 </r>
       <r>     8.6208   104.5631   516.3496 </r>
       <r>     8.9078    46.4774   529.6900 </r>
       <r>     9.1948    20.6378   535.6137 </r>
       <r>     9.4819     9.7584   538.4146 </r>
       <r>     9.7689     3.2541   539.3486 </r>
       <r>    10.0559    12.9844   543.0755 </r>
       <r>    10.3429    11.7578   546.4504 </r>
       <r>    10.6300    12.7874   550.1208 </r>
       <r>    10.9170     4.4278   551.3917 </r>
       <r>    11.2040     8.3660   553.7930 </r>
       <r>    11.4911     8.4145   556.2082 </r>
       <r>    11.7781     7.4070   558.3342 </r>
       <r>    12.0651    12.5027   561.9229 </r>
       <r>    12.3522     2.6292   562.6775 </r>
       <r>    12.6392     9.3825   565.3706 </r>
       <r>    12.9262     8.4607   567.7991 </r>
       <r>    13.2132    -0.1804   567.7473 </r>
       <r>    13.5003     1.7464   568.2486 </r>
       <r>    13.7873    11.7667   571.6260 </r>
       <r>    14.0743     2.8958   572.4571 </r>
       <r>    14.3614     2.1654   573.0787 </r>
       <r>    14.6484     6.3274   574.8948 </r>
       <r>    14.9354     7.4528   577.0340 </r>
       <r>    15.2225     7.6192   579.2210 </r>
       <r>    15.5095    10.7680   582.3117 </r>
       <r>    15.7965     7.4489   584.4497 </r>
       <r>    16.0835     7.0894   586.4846 </r>
       <r>    16.3706    11.7331   589.8524 </r>
       <r>    16.6576     7.4276   591.9843 </r>
       <r>    16.9446    11.1358   595.1806 </r>
       <r>    17.2317     8.0368   597.4874 </r>
       <r>    17.5187     6.4658   599.3433 </r>
       <r>    17.8057     6.0200   601.0712 </r>
       <r>    18.0928     6.0525   602.8085 </r>
       <r>    18.3798    10.0731   605.6998 </r>
       <r>    18.6668     4.6954   607.0475 </r>
       <r>    18.9538    13.2989   610.8646 </r>
       <r>    19.2409     6.1789   612.6382 </r>
       <r>    19.5279    13.1613   616.4159 </r>
       <r>    19.8149    18.2229   621.6464 </r>
       <r>    20.1020     9.7651   624.4493 </r>
       <r>    20.3890     9.8348   627.2721 </r>
       <r>    20.6760    13.3174   631.0946 </r>
       <r>    20.9631    12.5472   634.6961 </r>
       <r>    21.2501     1.8955   635.2401 </r>
       <r>    21.5371    14.1516   639.3021 </r>
       <r>    21.8241    13.1886   643.0876 </r>
       <r>    22.1112     9.8734   645.9215 </r>
       <r>    22.3982     3.5966   646.9539 </r>
       <r>    22.6852     3.7483   648.0298 </r>
       <r>    22.9723    -0.0964   648.0021 </r>
       <r>    23.2593    -0.0073   648.0000 </r>
       <r>    23.5463    -0.0000   648.0000 </r>
       <r>    23.8334    -0.0000   648.0000 </r>
       <r>    24.1204     0.0000   648.0000 </r>
       <r>    24.4074     0.0000   648.0000 </r>
       <r>    24.6944     0.0000   648.0000 </r>
       <r>    24.9815     0.0000   648.0000 </r>
       <r>    25.2685     0.0000   648.0000 </r>
       <r>    25.5555     0.0000   648.0000 </r>
       <r>    25.8426     0.0000   648.0000 </r>
       <r>    26.1296     0.0000   648.0000 </r>
       <r>    26.4166     0.0000   648.0000 </r>
      </set>
     </set>
    </array>
   </total>
  </dos>
 </calculation>
 <structure name="finalpos" >
  <crystal>
   <varray name="basis" >
    <v>       0.00000000       6.94425000       6.94425000 </v>
    <v>       6.94425000       0.00000000       6.94425000 </v>
    <v>       6.94425000       6.94425000       0.00000000 </v>
   </varray>
   <i name="volume">    669.73969208 </i>
   <varray name="rec_basis" >
    <v>      -0.07200202       0.07200202       0.07200202 </v>
    <v>       0.07200202      -0.07200202       0.07200202 </v>
    <v>       0.07200202       0.07200202      -0.07200202 </v>
   </varray>
  </crystal>
  <varray name="positions" >
   <v>       0.00000000       0.00000000       0.00000000 </v>
   <v>       0.00000000       0.00000000       0.25000000 </v>
   <v>       0.00000000       0.00000000       0.50000000 </v>
   <v>       0.00000000       0.00000000       0.75000000 </v>
   <v>       0.00000000       0.25000000       0.00000000 </v>
   <v>       0.00000000       0.25000000       0.25000000 </v>
   <v>       0.00000000       0.25000000       0.50000000 </v>
   <v>       0.00000000       0.25000000       0.75000000 </v>
   <v>       0.00000000       0.50000000       0.00000000 </v>
   <v>       0.00000000       0.50000000       0.25000000 </v>
   <v>       0.00000000       0.50000000       0.50000000 </v>
   <v>       0.00000000       0.50000000       0.75000000 </v>
   <v>       0.00000000       0.75000000       0.00000000 </v>
   <v>       0.00000000       0.75000000       0.25000000 </v>
   <v>       0.00000000       0.75000000       0.50000000 </v>
   <v>       0.00000000       0.75000000       0.75000000 </v>
   <v>       0.25000000       0.00000000       0.00000000 </v>
   <v>       0.25000000       0.00000000       0.25000000 </v>
   <v>       0.25000000       0.00000000       0.50000000 </v>
   <v>       0.25000000       0.00000000       0.75000000 </v>
   <v>       0.25000000       0.25000000       0.00000000 </v>
   <v>       0.25000000       0.25000000       0.25000000 </v>
   <v>       0.25000000       0.25000000       0.50000000 </v>
   <v>       0.25000000       0.25000000       0.75000000 </v>
   <v>       0.25000000       0.50000000       0.00000000 </v>
   <v>       0.25000000       0.50000000       0.25000000 </v>
   <v>       0.25000000       0.50000000       0.50000000 </v>
   <v>       0.25000000       0.50000000       0.75000000 </v>
   <v>       0.25000000       0.75000000       0.00000000 </v>
   <v>       0.25000000       0.75000000       0.25000000 </v>
   <v>       0.25000000       0.75000000       0.50000000 </v>
   <v>       0.25000000       0.75000000       0.75000000 </v>
   <v>       0.50000000       0.00000000       0.00000000 </v>
   <v>       0.50000000       0.00000000       0.25000000 </v>
   <v>       0.50000000       0.00000000       0.50000000 </v>
   <v>       0.50000000       0.00000000       0.75000000 </v>
   <v>       0.50000000       0.25000000       0.00000000 </v>
   <v>       0.50000000       0.25000000       0.25000000 </v>
   <v>       0.50000000       0.25000000       0.50000000 </v>
   <v>       0.50000000       0.25000000       0.75000000 </v>
   <v>       0.50000000       0.50000000       0.00000000 </v>
   <v>       0.50000000       0.50000000       0.25000000 </v>
   <v>       0.50000000       0.50000000       0.50000000 </v>
   <v>       0.50000000       0.50000000       0.75000000 </v>
   <v>       0.50000000       0.75000000       0.00000000 </v>
   <v>       0.50000000       0.75000000       0.25000000 </v>
   <v>       0.50000000       0.75000000       0.50000000 </v>
   <v>       0.50000000       0.75000000       0.75000000 </v>
   <v>       0.75000000       0.00000000       0.00000000 </v>
   <v>       0.75000000       0.00000000       0.25000000 </v>
   <v>       0.75000000       0.00000000       0.50000000 </v>
   <v>       0.75000000       0.00000000       0.75000000 </v>
   <v>       0.75000000       0.25000000       0.00000000 </v>
   <v>       0.75000000       0.25000000       0.25000000 </v>
   <v>       0.75000000       0.25000000       0.50000000 </v>
   <v>       0.75000000       0.25000000       0.75000000 </v>
   <v>       0.75000000       0.50000000       0.00000000 </v>
   <v>       0.75000000       0.50000000       0.25000000 </v>
   <v>       0.75000000       0.50000000       0.50000000 </v>
   <v>       0.75000000       0.50000000       0.75000000 </v>
   <v>       0.75000000       0.75000000       0.00000000 </v>
   <v>       0.75000000       0.75000000       0.25000000 </v>
   <v>       0.75000000       0.75000000       0.50000000 </v>
   <v>       0.75000000       0.75000000       0.75000000 </v>
  </varray>
 </structure>
</modeling>
