       N       E                     dE             d eps       ncg     rms          rms(c)
DAV:   1     0.162936984539E+05    0.16294E+05   -0.58650E+05 11504   0.228E+03
DAV:   2     0.125028307997E+04   -0.15043E+05   -0.14580E+05 10368   0.732E+02
DAV:   3    -0.336301505513E+03   -0.15866E+04   -0.13348E+04 10464   0.254E+02
DAV:   4    -0.427025126268E+03   -0.90724E+02   -0.88193E+02 11064   0.642E+01
DAV:   5    -0.428526700495E+03   -0.15016E+01   -0.14999E+01 11040   0.801E+00    0.668E+01
DAV:   6    -0.387237587621E+03    0.41289E+02   -0.52381E+02 10888   0.714E+01    0.416E+01
DAV:   7    -0.366587141815E+03    0.20650E+02   -0.88984E+01 10880   0.299E+01    0.613E+00
DAV:   8    -0.366426027045E+03    0.16111E+00   -0.98288E-01 11072   0.224E+00    0.262E+00
DAV:   9    -0.366343032006E+03    0.82995E-01   -0.10310E-01 12920   0.633E-01    0.564E-01
DAV:  10    -0.366346347515E+03   -0.33155E-02   -0.91894E-03 11272   0.190E-01    0.218E-01
DAV:  11    -0.366347209520E+03   -0.86201E-03   -0.15783E-03 11152   0.944E-02    0.717E-02
DAV:  12    -0.366347333283E+03   -0.12376E-03   -0.18051E-04 10920   0.276E-02    0.507E-02
DAV:  13    -0.366347333832E+03   -0.54939E-06   -0.12900E-05  9944   0.915E-03    0.243E-02
DAV:  14    -0.366347301377E+03    0.32455E-04   -0.13642E-05  9584   0.103E-02    0.384E-03
DAV:  15    -0.366347298162E+03    0.32144E-05   -0.73591E-07  5504   0.220E-03    0.943E-04
DAV:  16    -0.366347298529E+03   -0.36668E-06   -0.10105E-07  5472   0.987E-04
   1 F= -.36634730E+03 E0= -.36625654E+03  d E =-.272263E+00  mag=    38.8698
 Found     1 degrees of freedom:
       N       E                     dE             d eps       ncg     rms          rms(c)
DAV:   1    -0.366251200914E+03    0.96097E-01   -0.22209E+00 20592   0.150E+01    0.539E-01
DAV:   2    -0.366345730734E+03   -0.94530E-01   -0.93251E-01 16360   0.167E+00    0.950E-01
DAV:   3    -0.366349012752E+03   -0.32820E-02   -0.37855E-02 19584   0.106E+00    0.105E+00
DAV:   4    -0.366347107571E+03    0.19052E-02   -0.71392E-03 18664   0.619E-01    0.636E-01
DAV:   5    -0.366345951926E+03    0.11556E-02   -0.12824E-03 17352   0.331E-01    0.179E-01
DAV:   6    -0.366345935639E+03    0.16287E-04   -0.30354E-04 20384   0.888E-02    0.163E-01
DAV:   7    -0.366345855715E+03    0.79923E-04   -0.73483E-05 17472   0.679E-02    0.133E-01
DAV:   8    -0.366345834113E+03    0.21602E-04   -0.89472E-05 18232   0.881E-02    0.146E-01
DAV:   9    -0.366345772216E+03    0.61897E-04   -0.14041E-04 19872   0.113E-01    0.125E-01
DAV:  10    -0.366345716849E+03    0.55367E-04   -0.89146E-05 21600   0.772E-02    0.190E-02
DAV:  11    -0.366345720376E+03   -0.35271E-05   -0.22777E-05 22520   0.227E-02    0.291E-02
DAV:  12    -0.366345718342E+03    0.20342E-05   -0.67084E-06 16456   0.194E-02    0.114E-02
DAV:  13    -0.366345718450E+03   -0.10873E-06   -0.13909E-06  8512   0.941E-03
   2 F= -.36634572E+03 E0= -.36625498E+03  d E =-.272207E+00  mag=    38.8700
       N       E                     dE             d eps       ncg     rms          rms(c)
DAV:   1    -0.366001214532E+03    0.34450E+00   -0.78409E+00 20672   0.276E+01    0.103E+00
DAV:   2    -0.366354992713E+03   -0.35378E+00   -0.33819E+00 16456   0.306E+00    0.263E+00
DAV:   3    -0.366351459326E+03    0.35334E-02   -0.17314E-01 18912   0.194E+00    0.139E+00
DAV:   4    -0.366354591289E+03   -0.31320E-02   -0.25442E-02 19400   0.121E+00    0.166E+00
DAV:   5    -0.366346610226E+03    0.79811E-02   -0.83447E-03 16880   0.856E-01    0.393E-01
DAV:   6    -0.366346447097E+03    0.16313E-03   -0.13547E-03 19432   0.206E-01    0.296E-01
DAV:   7    -0.366346224476E+03    0.22262E-03   -0.36873E-04 17784   0.139E-01    0.267E-01
DAV:   8    -0.366346053922E+03    0.17055E-03   -0.34269E-04 17832   0.162E-01    0.242E-01
DAV:   9    -0.366346095193E+03   -0.41271E-04   -0.54935E-04 17864   0.213E-01    0.321E-01
DAV:  10    -0.366345790474E+03    0.30472E-03   -0.52730E-04 20832   0.198E-01    0.168E-01
DAV:  11    -0.366345715412E+03    0.75062E-04   -0.17803E-04 20600   0.940E-02    0.319E-02
DAV:  12    -0.366345722163E+03   -0.67515E-05   -0.41118E-05 21560   0.328E-02    0.388E-02
DAV:  13    -0.366345718409E+03    0.37539E-05   -0.13687E-05 16736   0.299E-02    0.156E-02
DAV:  14    -0.366345721175E+03   -0.27660E-05   -0.40808E-06 12960   0.202E-02    0.322E-02
DAV:  15    -0.366345718267E+03    0.29084E-05   -0.27366E-06 10320   0.177E-02    0.706E-03
DAV:  16    -0.366345718534E+03   -0.26755E-06   -0.95648E-07  8168   0.689E-03
   3 F= -.36634572E+03 E0= -.36625498E+03  d E =-.272207E+00  mag=    38.8703
