 vasp.5.4.1 05Feb16 (build Oct 12 2016 17:31:35) complex                        
  
 executed on           IFC91_ompi date 2020.09.07  22:42:49
 running on    4 total cores
 distrk:  each k-point on    4 cores,    1 groups
 distr:  one band on NCORES_PER_BAND=   1 cores,    4 groups


--------------------------------------------------------------------------------------------------------


 INCAR:
 POTCAR:   PAW_PBE Ni_pv 06Sep2000                
 POTCAR:   PAW_PBE Ni_pv 06Sep2000                
  local pseudopotential read in
  partial core-charges read in
  atomic valenz-charges read in
  non local Contribution for L=           1  read in
    real space projection operators read in
  non local Contribution for L=           1  read in
    real space projection operators read in
  non local Contribution for L=           2  read in
    real space projection operators read in
  non local Contribution for L=           2  read in
    real space projection operators read in
  non local Contribution for L=           0  read in
    real space projection operators read in
  non local Contribution for L=           0  read in
    real space projection operators read in
    PAW grid and wavefunctions read in
 
   number of l-projection  operators is LMAX  =           6
   number of lm-projection operators is LMMAX =          18
 
 Optimization of the real space projectors (new method)

 maximal supplied QI-value         = 18.90
 optimisation between [QCUT,QGAM] = [ 10.96, 27.40] = [ 33.64,210.25] Ry 
 Optimized for a Real-space Cutoff    1.19 Angstroem

   l    n(q)    QCUT    max X(q) W(low)/X(q) W(high)/X(q)  e(spline) 
   1      9    10.960     3.231    0.64E-06    0.38E-05    0.29E-07
   1      9    10.960     4.241    0.27E-04    0.99E-05    0.15E-06
   2      9    10.960     3.566    0.37E-04    0.13E-04    0.55E-07
   2      9    10.960    20.429    0.20E-03    0.15E-04    0.28E-06
   0     10    10.960    19.799    0.13E-04    0.31E-05    0.11E-07
   0     10    10.960    52.283    0.57E-04    0.26E-04    0.65E-07
 PAW_PBE Ni_pv 06Sep2000                :
 energy of atom  1       EATOM=-3500.3496
 kinetic energy error for atom=    0.0894 (will be added to EATOM!!)
 
 
 POSCAR: Supercell by Yi Wang                    
  positions in direct lattice
  No initial velocities read in
 exchange correlation table for  LEXCH =        8
   RHO(1)=    0.500       N(1)  =     2000
   RHO(2)=  100.500       N(2)  =     4000
 


--------------------------------------------------------------------------------------------------------


 ion  position               nearest neighbor table
   1  0.000  0.000  0.000-   2 2.42   4 2.42   5 2.42   8 2.42  13 2.42  14 2.42  17 2.42  20 2.42
                            29 2.42  49 2.42  50 2.42  53 2.42
   2  0.000  0.000  0.250-   1 2.42   3 2.42   5 2.42   6 2.42  14 2.42  15 2.42  17 2.42  18 2.42
                            30 2.42  50 2.42  51 2.42  54 2.42
   3  0.000  0.000  0.500-   2 2.42   4 2.42   6 2.42   7 2.42  15 2.42  16 2.42  18 2.42  19 2.42
                            31 2.42  51 2.42  52 2.42  55 2.42
   4  0.000  0.000  0.750-   1 2.42   3 2.42   7 2.42   8 2.42  13 2.42  16 2.42  19 2.42  20 2.42
                            32 2.42  49 2.42  52 2.42  56 2.42
   5  0.000  0.250  0.000-   1 2.42   2 2.42   6 2.42   8 2.42   9 2.42  12 2.42  17 2.42  21 2.42
                            24 2.42  53 2.42  54 2.42  57 2.42
   6  0.000  0.250  0.250-   2 2.42   3 2.42   5 2.42   7 2.42   9 2.42  10 2.42  18 2.42  21 2.42
                            22 2.42  54 2.42  55 2.42  58 2.42
   7  0.000  0.250  0.500-   3 2.42   4 2.42   6 2.42   8 2.42  10 2.42  11 2.42  19 2.42  22 2.42
                            23 2.42  55 2.42  56 2.42  59 2.42
   8  0.000  0.250  0.750-   1 2.42   4 2.42   5 2.42   7 2.42  11 2.42  12 2.42  20 2.42  23 2.42
                            24 2.42  53 2.42  56 2.42  60 2.42
   9  0.000  0.500  0.000-   5 2.42   6 2.42  10 2.42  12 2.42  13 2.42  16 2.42  21 2.42  25 2.42
                            28 2.42  57 2.42  58 2.42  61 2.42
  10  0.000  0.500  0.250-   6 2.42   7 2.42   9 2.42  11 2.42  13 2.42  14 2.42  22 2.42  25 2.42
                            26 2.42  58 2.42  59 2.42  62 2.42
  11  0.000  0.500  0.500-   7 2.42   8 2.42  10 2.42  12 2.42  14 2.42  15 2.42  23 2.42  26 2.42
                            27 2.42  59 2.42  60 2.42  63 2.42
  12  0.000  0.500  0.750-   5 2.42   8 2.42   9 2.42  11 2.42  15 2.42  16 2.42  24 2.42  27 2.42
                            28 2.42  57 2.42  60 2.42  64 2.42
  13  0.000  0.750  0.000-   1 2.42   4 2.42   9 2.42  10 2.42  14 2.42  16 2.42  25 2.42  29 2.42
                            32 2.42  49 2.42  61 2.42  62 2.42
  14  0.000  0.750  0.250-   1 2.42   2 2.42  10 2.42  11 2.42  13 2.42  15 2.42  26 2.42  29 2.42
                            30 2.42  50 2.42  62 2.42  63 2.42
  15  0.000  0.750  0.500-   2 2.42   3 2.42  11 2.42  12 2.42  14 2.42  16 2.42  27 2.42  30 2.42
                            31 2.42  51 2.42  63 2.42  64 2.42
  16  0.000  0.750  0.750-   3 2.42   4 2.42   9 2.42  12 2.42  13 2.42  15 2.42  28 2.42  31 2.42
                            32 2.42  52 2.42  61 2.42  64 2.42
  17  0.250  0.000  0.000-   1 2.42   2 2.42   5 2.42  18 2.42  20 2.42  21 2.42  24 2.42  29 2.42
                            30 2.42  33 2.42  36 2.42  45 2.42
  18  0.250  0.000  0.250-   2 2.42   3 2.42   6 2.42  17 2.42  19 2.42  21 2.42  22 2.42  30 2.42
                            31 2.42  33 2.42  34 2.42  46 2.42
  19  0.250  0.000  0.500-   3 2.42   4 2.42   7 2.42  18 2.42  20 2.42  22 2.42  23 2.42  31 2.42
                            32 2.42  34 2.42  35 2.42  47 2.42
  20  0.250  0.000  0.750-   1 2.42   4 2.42   8 2.42  17 2.42  19 2.42  23 2.42  24 2.42  29 2.42
                            32 2.42  35 2.42  36 2.42  48 2.42
  21  0.250  0.250  0.000-   5 2.42   6 2.42   9 2.42  17 2.42  18 2.42  22 2.42  24 2.42  25 2.42
                            28 2.42  33 2.42  37 2.42  40 2.42
  22  0.250  0.250  0.250-   6 2.42   7 2.42  10 2.42  18 2.42  19 2.42  21 2.42  23 2.42  25 2.42
                            26 2.42  34 2.42  37 2.42  38 2.42
  23  0.250  0.250  0.500-   7 2.42   8 2.42  11 2.42  19 2.42  20 2.42  22 2.42  24 2.42  26 2.42
                            27 2.42  35 2.42  38 2.42  39 2.42
  24  0.250  0.250  0.750-   5 2.42   8 2.42  12 2.42  17 2.42  20 2.42  21 2.42  23 2.42  27 2.42
                            28 2.42  36 2.42  39 2.42  40 2.42
  25  0.250  0.500  0.000-   9 2.42  10 2.42  13 2.42  21 2.42  22 2.42  26 2.42  28 2.42  29 2.42
                            32 2.42  37 2.42  41 2.42  44 2.42
  26  0.250  0.500  0.250-  10 2.42  11 2.42  14 2.42  22 2.42  23 2.42  25 2.42  27 2.42  29 2.42
                            30 2.42  38 2.42  41 2.42  42 2.42
  27  0.250  0.500  0.500-  11 2.42  12 2.42  15 2.42  23 2.42  24 2.42  26 2.42  28 2.42  30 2.42
                            31 2.42  39 2.42  42 2.42  43 2.42
  28  0.250  0.500  0.750-   9 2.42  12 2.42  16 2.42  21 2.42  24 2.42  25 2.42  27 2.42  31 2.42
                            32 2.42  40 2.42  43 2.42  44 2.42
  29  0.250  0.750  0.000-   1 2.42  13 2.42  14 2.42  17 2.42  20 2.42  25 2.42  26 2.42  30 2.42
                            32 2.42  41 2.42  45 2.42  48 2.42
  30  0.250  0.750  0.250-   2 2.42  14 2.42  15 2.42  17 2.42  18 2.42  26 2.42  27 2.42  29 2.42
                            31 2.42  42 2.42  45 2.42  46 2.42
  31  0.250  0.750  0.500-   3 2.42  15 2.42  16 2.42  18 2.42  19 2.42  27 2.42  28 2.42  30 2.42
                            32 2.42  43 2.42  46 2.42  47 2.42
  32  0.250  0.750  0.750-   4 2.42  13 2.42  16 2.42  19 2.42  20 2.42  25 2.42  28 2.42  29 2.42
                            31 2.42  44 2.42  47 2.42  48 2.42
  33  0.500  0.000  0.000-  17 2.42  18 2.42  21 2.42  34 2.42  36 2.42  37 2.42  40 2.42  45 2.42
                            46 2.42  49 2.42  52 2.42  61 2.42
  34  0.500  0.000  0.250-  18 2.42  19 2.42  22 2.42  33 2.42  35 2.42  37 2.42  38 2.42  46 2.42
                            47 2.42  49 2.42  50 2.42  62 2.42
  35  0.500  0.000  0.500-  19 2.42  20 2.42  23 2.42  34 2.42  36 2.42  38 2.42  39 2.42  47 2.42
                            48 2.42  50 2.42  51 2.42  63 2.42
  36  0.500  0.000  0.750-  17 2.42  20 2.42  24 2.42  33 2.42  35 2.42  39 2.42  40 2.42  45 2.42
                            48 2.42  51 2.42  52 2.42  64 2.42
  37  0.500  0.250  0.000-  21 2.42  22 2.42  25 2.42  33 2.42  34 2.42  38 2.42  40 2.42  41 2.42
                            44 2.42  49 2.42  53 2.42  56 2.42
  38  0.500  0.250  0.250-  22 2.42  23 2.42  26 2.42  34 2.42  35 2.42  37 2.42  39 2.42  41 2.42
                            42 2.42  50 2.42  53 2.42  54 2.42
  39  0.500  0.250  0.500-  23 2.42  24 2.42  27 2.42  35 2.42  36 2.42  38 2.42  40 2.42  42 2.42
                            43 2.42  51 2.42  54 2.42  55 2.42
  40  0.500  0.250  0.750-  21 2.42  24 2.42  28 2.42  33 2.42  36 2.42  37 2.42  39 2.42  43 2.42
                            44 2.42  52 2.42  55 2.42  56 2.42
  41  0.500  0.500  0.000-  25 2.42  26 2.42  29 2.42  37 2.42  38 2.42  42 2.42  44 2.42  45 2.42
                            48 2.42  53 2.42  57 2.42  60 2.42
  42  0.500  0.500  0.250-  26 2.42  27 2.42  30 2.42  38 2.42  39 2.42  41 2.42  43 2.42  45 2.42
                            46 2.42  54 2.42  57 2.42  58 2.42
  43  0.500  0.500  0.500-  27 2.42  28 2.42  31 2.42  39 2.42  40 2.42  42 2.42  44 2.42  46 2.42
                            47 2.42  55 2.42  58 2.42  59 2.42
  44  0.500  0.500  0.750-  25 2.42  28 2.42  32 2.42  37 2.42  40 2.42  41 2.42  43 2.42  47 2.42
                            48 2.42  56 2.42  59 2.42  60 2.42
  45  0.500  0.750  0.000-  17 2.42  29 2.42  30 2.42  33 2.42  36 2.42  41 2.42  42 2.42  46 2.42
                            48 2.42  57 2.42  61 2.42  64 2.42
  46  0.500  0.750  0.250-  18 2.42  30 2.42  31 2.42  33 2.42  34 2.42  42 2.42  43 2.42  45 2.42
                            47 2.42  58 2.42  61 2.42  62 2.42
  47  0.500  0.750  0.500-  19 2.42  31 2.42  32 2.42  34 2.42  35 2.42  43 2.42  44 2.42  46 2.42
                            48 2.42  59 2.42  62 2.42  63 2.42
  48  0.500  0.750  0.750-  20 2.42  29 2.42  32 2.42  35 2.42  36 2.42  41 2.42  44 2.42  45 2.42
                            47 2.42  60 2.42  63 2.42  64 2.42
  49  0.750  0.000  0.000-   1 2.42   4 2.42  13 2.42  33 2.42  34 2.42  37 2.42  50 2.42  52 2.42
                            53 2.42  56 2.42  61 2.42  62 2.42
  50  0.750  0.000  0.250-   1 2.42   2 2.42  14 2.42  34 2.42  35 2.42  38 2.42  49 2.42  51 2.42
                            53 2.42  54 2.42  62 2.42  63 2.42
  51  0.750  0.000  0.500-   2 2.42   3 2.42  15 2.42  35 2.42  36 2.42  39 2.42  50 2.42  52 2.42
                            54 2.42  55 2.42  63 2.42  64 2.42
  52  0.750  0.000  0.750-   3 2.42   4 2.42  16 2.42  33 2.42  36 2.42  40 2.42  49 2.42  51 2.42
                            55 2.42  56 2.42  61 2.42  64 2.42
  53  0.750  0.250  0.000-   1 2.42   5 2.42   8 2.42  37 2.42  38 2.42  41 2.42  49 2.42  50 2.42
                            54 2.42  56 2.42  57 2.42  60 2.42
  54  0.750  0.250  0.250-   2 2.42   5 2.42   6 2.42  38 2.42  39 2.42  42 2.42  50 2.42  51 2.42
                            53 2.42  55 2.42  57 2.42  58 2.42
  55  0.750  0.250  0.500-   3 2.42   6 2.42   7 2.42  39 2.42  40 2.42  43 2.42  51 2.42  52 2.42
                            54 2.42  56 2.42  58 2.42  59 2.42
  56  0.750  0.250  0.750-   4 2.42   7 2.42   8 2.42  37 2.42  40 2.42  44 2.42  49 2.42  52 2.42
                            53 2.42  55 2.42  59 2.42  60 2.42
  57  0.750  0.500  0.000-   5 2.42   9 2.42  12 2.42  41 2.42  42 2.42  45 2.42  53 2.42  54 2.42
                            58 2.42  60 2.42  61 2.42  64 2.42
  58  0.750  0.500  0.250-   6 2.42   9 2.42  10 2.42  42 2.42  43 2.42  46 2.42  54 2.42  55 2.42
                            57 2.42  59 2.42  61 2.42  62 2.42
  59  0.750  0.500  0.500-   7 2.42  10 2.42  11 2.42  43 2.42  44 2.42  47 2.42  55 2.42  56 2.42
                            58 2.42  60 2.42  62 2.42  63 2.42
  60  0.750  0.500  0.750-   8 2.42  11 2.42  12 2.42  41 2.42  44 2.42  48 2.42  53 2.42  56 2.42
                            57 2.42  59 2.42  63 2.42  64 2.42
  61  0.750  0.750  0.000-   9 2.42  13 2.42  16 2.42  33 2.42  45 2.42  46 2.42  49 2.42  52 2.42
                            57 2.42  58 2.42  62 2.42  64 2.42
  62  0.750  0.750  0.250-  10 2.42  13 2.42  14 2.42  34 2.42  46 2.42  47 2.42  49 2.42  50 2.42
                            58 2.42  59 2.42  61 2.42  63 2.42
  63  0.750  0.750  0.500-  11 2.42  14 2.42  15 2.42  35 2.42  47 2.42  48 2.42  50 2.42  51 2.42
                            59 2.42  60 2.42  62 2.42  64 2.42
  64  0.750  0.750  0.750-  12 2.42  15 2.42  16 2.42  36 2.42  45 2.42  48 2.42  51 2.42  52 2.42
                            57 2.42  60 2.42  61 2.42  63 2.42
 
  LATTYP: Found a face centered cubic cell.
 ALAT       =    13.6770000000
  
  Lattice vectors:
  
 A1 = (   0.0000000000,   6.8385000000,   6.8385000000)
 A2 = (   6.8385000000,   0.0000000000,   6.8385000000)
 A3 = (   6.8385000000,   6.8385000000,   0.0000000000)


Analysis of symmetry for initial positions (statically):
=====================================================================
 Subroutine PRICEL returns following result:
 
  LATTYP: Found a face centered cubic cell.
 ALAT       =     3.4192500000
  
  Lattice vectors:
  
 A1 = (   0.0000000000,   1.7096250000,   1.7096250000)
 A2 = (   1.7096250000,   0.0000000000,   1.7096250000)
 A3 = (   1.7096250000,   1.7096250000,   0.0000000000)
 
  64 primitive cells build up your supercell.
 

 Routine SETGRP: Setting up the symmetry group for a 
 face centered cubic supercell.


 Subroutine GETGRP returns: Found 48 space group operations
 (whereof 48 operations were pure point group operations)
 out of a pool of 48 trial point group operations.


The static configuration has the point symmetry O_h .


Analysis of symmetry for dynamics (positions and initial velocities):
=====================================================================
 Subroutine PRICEL returns following result:
 
  LATTYP: Found a face centered cubic cell.
 ALAT       =     3.4192500000
  
  Lattice vectors:
  
 A1 = (   0.0000000000,   1.7096250000,   1.7096250000)
 A2 = (   1.7096250000,   0.0000000000,   1.7096250000)
 A3 = (   1.7096250000,   1.7096250000,   0.0000000000)
 
  64 primitive cells build up your supercell.
 

 Routine SETGRP: Setting up the symmetry group for a 
 face centered cubic supercell.


 Subroutine GETGRP returns: Found 48 space group operations
 (whereof 48 operations were pure point group operations)
 out of a pool of 48 trial point group operations.


The dynamic configuration has the point symmetry O_h .


Analysis of structural, dynamic, and magnetic symmetry:
=====================================================================
 Subroutine PRICEL returns following result:
 
  LATTYP: Found a face centered cubic cell.
 ALAT       =     3.4192500000
  
  Lattice vectors:
  
 A1 = (   0.0000000000,   1.7096250000,   1.7096250000)
 A2 = (   1.7096250000,   0.0000000000,   1.7096250000)
 A3 = (   1.7096250000,   1.7096250000,   0.0000000000)
 
  64 primitive cells build up your supercell.
 

 Routine SETGRP: Setting up the symmetry group for a 
 face centered cubic supercell.


 Subroutine GETGRP returns: Found 48 space group operations
 (whereof 48 operations were pure point group operations)
 out of a pool of 48 trial point group operations.


The magnetic configuration has the point symmetry O_h .


 Subroutine INISYM returns: Found 48 space group operations
 (whereof 48 operations are pure point group operations),
 and found    64 'primitive' translations

 
 
 KPOINTS: Zr 15x15x15                             

Automatic generation of k-mesh.
Space group operators:
 irot       det(A)        alpha          n_x          n_y          n_z        tau_x        tau_y        tau_z
    1     1.000000     0.000000     1.000000     0.000000     0.000000     0.000000     0.000000     0.000000
    2    -1.000000     0.000000     1.000000     0.000000     0.000000     0.000000     0.000000     0.000000
    3     1.000000   120.000000    -0.577350    -0.577350    -0.577350     0.000000     0.000000     0.000000
    4    -1.000000   120.000000    -0.577350    -0.577350    -0.577350     0.000000     0.000000     0.000000
    5     1.000000   120.000000     0.577350     0.577350     0.577350     0.000000     0.000000     0.000000
    6    -1.000000   120.000000     0.577350     0.577350     0.577350     0.000000     0.000000     0.000000
    7     1.000000    90.000000     0.000000     0.000000    -1.000000     0.000000     0.000000     0.000000
    8    -1.000000    90.000000     0.000000     0.000000    -1.000000     0.000000     0.000000     0.000000
    9     1.000000   180.000000     0.000000     0.707107     0.707107     0.000000     0.000000     0.000000
   10    -1.000000   180.000000     0.000000     0.707107     0.707107     0.000000     0.000000     0.000000
   11     1.000000    90.000000     0.000000     1.000000     0.000000     0.000000     0.000000     0.000000
   12    -1.000000    90.000000     0.000000     1.000000     0.000000     0.000000     0.000000     0.000000
   13     1.000000   180.000000     0.000000     0.000000     1.000000     0.000000     0.000000     0.000000
   14    -1.000000   180.000000     0.000000     0.000000     1.000000     0.000000     0.000000     0.000000
   15     1.000000   120.000000    -0.577350     0.577350     0.577350     0.000000     0.000000     0.000000
   16    -1.000000   120.000000    -0.577350     0.577350     0.577350     0.000000     0.000000     0.000000
   17     1.000000   120.000000    -0.577350     0.577350    -0.577350     0.000000     0.000000     0.000000
   18    -1.000000   120.000000    -0.577350     0.577350    -0.577350     0.000000     0.000000     0.000000
   19     1.000000    90.000000     0.000000     0.000000     1.000000     0.000000     0.000000     0.000000
   20    -1.000000    90.000000     0.000000     0.000000     1.000000     0.000000     0.000000     0.000000
   21     1.000000    90.000000    -1.000000     0.000000     0.000000     0.000000     0.000000     0.000000
   22    -1.000000    90.000000    -1.000000     0.000000     0.000000     0.000000     0.000000     0.000000
   23     1.000000   180.000000     0.707107     0.000000     0.707107     0.000000     0.000000     0.000000
   24    -1.000000   180.000000     0.707107     0.000000     0.707107     0.000000     0.000000     0.000000
   25     1.000000   120.000000     0.577350    -0.577350     0.577350     0.000000     0.000000     0.000000
   26    -1.000000   120.000000     0.577350    -0.577350     0.577350     0.000000     0.000000     0.000000
   27     1.000000   120.000000    -0.577350    -0.577350     0.577350     0.000000     0.000000     0.000000
   28    -1.000000   120.000000    -0.577350    -0.577350     0.577350     0.000000     0.000000     0.000000
   29     1.000000   180.000000     1.000000     0.000000     0.000000     0.000000     0.000000     0.000000
   30    -1.000000   180.000000     1.000000     0.000000     0.000000     0.000000     0.000000     0.000000
   31     1.000000    90.000000     0.000000    -1.000000     0.000000     0.000000     0.000000     0.000000
   32    -1.000000    90.000000     0.000000    -1.000000     0.000000     0.000000     0.000000     0.000000
   33     1.000000   180.000000     0.707107     0.707107     0.000000     0.000000     0.000000     0.000000
   34    -1.000000   180.000000     0.707107     0.707107     0.000000     0.000000     0.000000     0.000000
   35     1.000000    90.000000     1.000000     0.000000     0.000000     0.000000     0.000000     0.000000
   36    -1.000000    90.000000     1.000000     0.000000     0.000000     0.000000     0.000000     0.000000
   37     1.000000   120.000000     0.577350    -0.577350    -0.577350     0.000000     0.000000     0.000000
   38    -1.000000   120.000000     0.577350    -0.577350    -0.577350     0.000000     0.000000     0.000000
   39     1.000000   180.000000     0.000000     1.000000     0.000000     0.000000     0.000000     0.000000
   40    -1.000000   180.000000     0.000000     1.000000     0.000000     0.000000     0.000000     0.000000
   41     1.000000   120.000000     0.577350     0.577350    -0.577350     0.000000     0.000000     0.000000
   42    -1.000000   120.000000     0.577350     0.577350    -0.577350     0.000000     0.000000     0.000000
   43     1.000000   180.000000     0.000000    -0.707107     0.707107     0.000000     0.000000     0.000000
   44    -1.000000   180.000000     0.000000    -0.707107     0.707107     0.000000     0.000000     0.000000
   45     1.000000   180.000000     0.707107    -0.707107     0.000000     0.000000     0.000000     0.000000
   46    -1.000000   180.000000     0.707107    -0.707107     0.000000     0.000000     0.000000     0.000000
   47     1.000000   180.000000     0.707107     0.000000    -0.707107     0.000000     0.000000     0.000000
   48    -1.000000   180.000000     0.707107     0.000000    -0.707107     0.000000     0.000000     0.000000
 
 Subroutine IBZKPT returns following result:
 ===========================================
 
 Found      4 irreducible k-points:
 
 Following reciprocal coordinates:
            Coordinates               Weight
  0.000000  0.000000  0.000000      1.000000
  0.333333  0.000000  0.000000      8.000000
  0.333333  0.333333  0.000000      6.000000
 -0.333333  0.333333  0.000000     12.000000
 
 Following cartesian coordinates:
            Coordinates               Weight
  0.000000  0.000000  0.000000      1.000000
 -0.024372  0.024372  0.024372      8.000000
  0.000000  0.000000  0.048744      6.000000
  0.048744 -0.048744  0.000000     12.000000
 
 
 Subroutine IBZKPT_HF returns following result:
 ==============================================
 
 Found     27 k-points in 1st BZ
 the following     27 k-points will be used (e.g. in the exchange kernel)
 Following reciprocal coordinates:   # in IRBZ
  0.000000  0.000000  0.000000    0.03703704   1 t-inv F
  0.333333  0.000000  0.000000    0.03703704   2 t-inv F
  0.333333  0.333333  0.000000    0.03703704   3 t-inv F
 -0.333333  0.333333  0.000000    0.03703704   4 t-inv F
 -0.333333  0.000000  0.000000    0.03703704   2 t-inv F
  0.000000  0.333333  0.000000    0.03703704   2 t-inv F
  0.000000 -0.333333  0.000000    0.03703704   2 t-inv F
  0.000000  0.000000  0.333333    0.03703704   2 t-inv F
  0.000000  0.000000 -0.333333    0.03703704   2 t-inv F
  0.333333  0.333333  0.333333    0.03703704   2 t-inv F
 -0.333333 -0.333333 -0.333333    0.03703704   2 t-inv F
 -0.333333 -0.333333  0.000000    0.03703704   3 t-inv F
  0.000000  0.333333  0.333333    0.03703704   3 t-inv F
  0.000000 -0.333333 -0.333333    0.03703704   3 t-inv F
  0.333333  0.000000  0.333333    0.03703704   3 t-inv F
 -0.333333  0.000000 -0.333333    0.03703704   3 t-inv F
  0.333333 -0.333333  0.000000    0.03703704   4 t-inv F
  0.000000 -0.333333  0.333333    0.03703704   4 t-inv F
  0.000000  0.333333 -0.333333    0.03703704   4 t-inv F
  0.333333  0.000000 -0.333333    0.03703704   4 t-inv F
 -0.333333  0.000000  0.333333    0.03703704   4 t-inv F
  0.333333  0.333333  0.666667    0.03703704   4 t-inv F
 -0.333333 -0.333333 -0.666667    0.03703704   4 t-inv F
 -0.333333 -0.666667 -0.333333    0.03703704   4 t-inv F
  0.333333  0.666667  0.333333    0.03703704   4 t-inv F
 -0.666667 -0.333333 -0.333333    0.03703704   4 t-inv F
  0.666667  0.333333  0.333333    0.03703704   4 t-inv F


--------------------------------------------------------------------------------------------------------




 Dimension of arrays:
   k-points           NKPTS =      4   k-points in BZ     NKDIM =      4   number of bands    NBANDS=    648
   number of dos      NEDOS =    301   number of ions     NIONS =     64
   non local maximal  LDIM  =      6   non local SUM 2l+1 LMDIM =     18
   total plane-waves  NPLWV = 343000
   max r-space proj   IRMAX =   3873   max aug-charges    IRDMAX=   6261
   dimension x,y,z NGX =    70 NGY =   70 NGZ =   70
   dimension x,y,z NGXF=   112 NGYF=  112 NGZF=  112
   support grid    NGXF=   112 NGYF=  112 NGZF=  112
   ions per type =              64
 NGX,Y,Z   is equivalent  to a cutoff of  12.03, 12.03, 12.03 a.u.
 NGXF,Y,Z  is equivalent  to a cutoff of  19.25, 19.25, 19.25 a.u.


 I would recommend the setting:
   dimension x,y,z NGX =    68 NGY =   68 NGZ =   68
 SYSTEM =  phonon of Zr bcc - omiga                
 POSCAR =  Supercell by Yi Wang                    

 Startparameter for this run:
   NWRITE =      0    write-flag & timer
   PREC   = h         normal or accurate (medium, high low for compatibility)
   ISTART =      0    job   : 0-new  1-cont  2-samecut
   ICHARG =      2    charge: 1-file 2-atom 10-const
   ISPIN  =      2    spin polarized calculation?
   LNONCOLLINEAR =      F non collinear calculations
   LSORBIT =      F    spin-orbit coupling
   INIWAV =      1    electr: 0-lowe 1-rand  2-diag
   LASPH  =      F    aspherical Exc in radial PAW
   METAGGA=      F    non-selfconsistent MetaGGA calc.

 Electronic Relaxation 1
   ENCUT  =  459.9 eV  33.80 Ry    5.81 a.u.  16.91 16.91 16.91*2*pi/ulx,y,z
   ENINI  =  459.9     initial cutoff
   ENAUG  =  703.4 eV  augmentation charge cutoff
   NELM   =     60;   NELMIN=  2; NELMDL=  0     # of ELM steps 
   EDIFF  = 0.1E-05   stopping-criterion for ELM
   LREAL  =      T    real-space projection
   NLSPLINE    = F    spline interpolate recip. space projectors
   LCOMPAT=      F    compatible to vasp.4.4
   GGA_COMPAT  = T    GGA compatible to vasp.4.4-vasp.4.6
   LMAXPAW     = -100 max onsite density
   LMAXMIX     =    2 max onsite mixed and CHGCAR
   VOSKOWN=      0    Vosko Wilk Nusair interpolation
   ROPT   =   -0.00040
 Ionic relaxation
   EDIFFG = 0.1E-04   stopping-criterion for IOM
   NSW    =    805    number of steps for IOM
   NBLOCK =      1;   KBLOCK =      1    inner block; outer block 
   IBRION =      6    ionic relax: 0-MD 1-quasi-New 2-CG
   NFREE  =      2    steps in history (QN), initial steepest desc. (CG)
   ISIF   =      2    stress and relaxation
   IWAVPR =     11    prediction:  0-non 1-charg 2-wave 3-comb
   ISYM   =      2    0-nonsym 1-usesym 2-fastsym
   LCORR  =      T    Harris-Foulkes like correction to forces

   POTIM  = 0.5000    time-step for ionic-motion
   TEIN   =    0.0    initial temperature
   TEBEG  =    0.0;   TEEND  =   0.0 temperature during run
   SMASS  =  -3.00    Nose mass-parameter (am)
   estimated Nose-frequenzy (Omega)   =  0.10E-29 period in steps =****** mass=  -0.214E-26a.u.
   SCALEE = 1.0000    scale energy and forces
   NPACO  =    256;   APACO  = 16.0  distance and # of slots for P.C.
   PSTRESS=    0.0 pullay stress

  Mass of Ions in am
   POMASS =  58.69
  Ionic Valenz
   ZVAL   =  16.00
  Atomic Wigner-Seitz radii
   RWIGS  =  -1.00
  virtual crystal weights 
   VCA    =   1.00
   NELECT =    1024.0000    total number of electrons
   NUPDOWN=      -1.0000    fix difference up-down

 DOS related values:
   EMIN   =  10.00;   EMAX   =-10.00  energy-range for DOS
   EFERMI =   0.00
   ISMEAR =     1;   SIGMA  =   0.20  broadening in eV -4-tet -1-fermi 0-gaus

 Electronic relaxation 2 (details)
   IALGO  =     38    algorithm
   LDIAG  =      T    sub-space diagonalisation (order eigenvalues)
   LSUBROT=      F    optimize rotation matrix (better conditioning)
   TURBO    =      0    0=normal 1=particle mesh
   IRESTART =      0    0=no restart 2=restart with 2 vectors
   NREBOOT  =      0    no. of reboots
   NMIN     =      0    reboot dimension
   EREF     =   0.00    reference energy to select bands
   IMIX   =      4    mixing-type and parameters
     AMIX     =   0.40;   BMIX     =  1.00
     AMIX_MAG =   1.60;   BMIX_MAG =  1.00
     AMIN     =   0.10
     WC   =   100.;   INIMIX=   1;  MIXPRE=   1;  MAXMIX= -45

 Intra band minimization:
   WEIMIN = 0.0010     energy-eigenvalue tresh-hold
   EBREAK =  0.39E-09  absolut break condition
   DEPER  =   0.30     relativ break condition  

   TIME   =   0.40     timestep for ELM

  volume/ion in A,a.u.               =       9.99        67.44
  Fermi-wavevector in a.u.,A,eV,Ry     =   1.915155  3.619118 49.903711  3.667819
  Thomas-Fermi vector in A             =   2.950909
 
 Write flags
   LWAVE  =      T    write WAVECAR
   LCHARG =      T    write CHGCAR
   LVTOT  =      F    write LOCPOT, total local potential
   LVHAR  =      F    write LOCPOT, Hartree potential only
   LELF   =      F    write electronic localiz. function (ELF)
   LORBIT =      0    0 simple, 1 ext, 2 COOP (PROOUT)


 Dipole corrections
   LMONO  =      F    monopole corrections only (constant potential shift)
   LDIPOL =      F    correct potential (dipole corrections)
   IDIPOL =      0    1-x, 2-y, 3-z, 4-all directions 
   EPSILON=  1.0000000 bulk dielectric constant

 Exchange correlation treatment:
   GGA     =    --    GGA type
   LEXCH   =     8    internal setting for exchange type
   VOSKOWN=      0    Vosko Wilk Nusair interpolation
   LHFCALC =     F    Hartree Fock is set to
   LHFONE  =     F    Hartree Fock one center treatment
   AEXX    =    0.0000 exact exchange contribution

 Linear response parameters
   LEPSILON=     F    determine dielectric tensor
   LRPA    =     F    only Hartree local field effects (RPA)
   LNABLA  =     F    use nabla operator in PAW spheres
   LVEL    =     F    velocity operator in full k-point grid
   LINTERFAST=   F  fast interpolation
   KINTER  =     0    interpolate to denser k-point grid
   CSHIFT  =0.1000    complex shift for real part using Kramers Kronig
   OMEGAMAX=  -1.0    maximum frequency
   DEG_THRESHOLD= 0.2000000E-02 threshold for treating states as degnerate
   RTIME   =    0.100 relaxation time in fs

 Orbital magnetization related:
   ORBITALMAG=     F  switch on orbital magnetization
   LCHIMAG   =     F  perturbation theory with respect to B field
   DQ        =  0.001000  dq finite difference perturbation B field



--------------------------------------------------------------------------------------------------------


 finite differences with symmetry
 charge density and potential will be updated during run
 spin polarized calculation
 Variant of blocked Davidson
 Davidson routine will perform the subspace rotation
 perform sub-space diagonalisation
    after iterative eigenvector-optimisation
 modified Broyden-mixing scheme, WC =      100.0
 initial mixing is a Kerker type mixing with AMIX =  0.4000 and BMIX =      1.0000
 Hartree-type preconditioning will be used
 using additional bands          136
 real space projection scheme for non local part
 use partial core corrections
 calculate Harris-corrections to forces 
   (improved forces if not selfconsistent)
 use gradient corrections 
 use of overlap-Matrix (Vanderbilt PP)
 Methfessel and Paxton  Order N= 1 SIGMA  =   0.20


--------------------------------------------------------------------------------------------------------


  energy-cutoff  :      459.93
  volume of cell :      639.61
      direct lattice vectors                 reciprocal lattice vectors
     0.000000000  6.838500000  6.838500000    -0.073115449  0.073115449  0.073115449
     6.838500000  0.000000000  6.838500000     0.073115449 -0.073115449  0.073115449
     6.838500000  6.838500000  0.000000000     0.073115449  0.073115449 -0.073115449

  length of vectors
     9.671099446  9.671099446  9.671099446     0.126639673  0.126639673  0.126639673


 
 k-points in units of 2pi/SCALE and weight: Zr 15x15x15                             
   0.00000000  0.00000000  0.00000000       0.037
  -0.02437182  0.02437182  0.02437182       0.296
   0.00000000  0.00000000  0.04874363       0.222
   0.04874363 -0.04874363  0.00000000       0.444
 
 k-points in reciprocal lattice and weights: Zr 15x15x15                             
   0.00000000  0.00000000  0.00000000       0.037
   0.33333333  0.00000000  0.00000000       0.296
   0.33333333  0.33333333  0.00000000       0.222
  -0.33333333  0.33333333  0.00000000       0.444
 
 position of ions in fractional coordinates (direct lattice) 
   0.00000000  0.00000000  0.00000000
   0.00000000  0.00000000  0.25000000
   0.00000000  0.00000000  0.50000000
   0.00000000  0.00000000  0.75000000
   0.00000000  0.25000000  0.00000000
   0.00000000  0.25000000  0.25000000
   0.00000000  0.25000000  0.50000000
   0.00000000  0.25000000  0.75000000
   0.00000000  0.50000000  0.00000000
   0.00000000  0.50000000  0.25000000
   0.00000000  0.50000000  0.50000000
   0.00000000  0.50000000  0.75000000
   0.00000000  0.75000000  0.00000000
   0.00000000  0.75000000  0.25000000
   0.00000000  0.75000000  0.50000000
   0.00000000  0.75000000  0.75000000
   0.25000000  0.00000000  0.00000000
   0.25000000  0.00000000  0.25000000
   0.25000000  0.00000000  0.50000000
   0.25000000  0.00000000  0.75000000
   0.25000000  0.25000000  0.00000000
   0.25000000  0.25000000  0.25000000
   0.25000000  0.25000000  0.50000000
   0.25000000  0.25000000  0.75000000
   0.25000000  0.50000000  0.00000000
   0.25000000  0.50000000  0.25000000
   0.25000000  0.50000000  0.50000000
   0.25000000  0.50000000  0.75000000
   0.25000000  0.75000000  0.00000000
   0.25000000  0.75000000  0.25000000
   0.25000000  0.75000000  0.50000000
   0.25000000  0.75000000  0.75000000
   0.50000000  0.00000000  0.00000000
   0.50000000  0.00000000  0.25000000
   0.50000000  0.00000000  0.50000000
   0.50000000  0.00000000  0.75000000
   0.50000000  0.25000000  0.00000000
   0.50000000  0.25000000  0.25000000
   0.50000000  0.25000000  0.50000000
   0.50000000  0.25000000  0.75000000
   0.50000000  0.50000000  0.00000000
   0.50000000  0.50000000  0.25000000
   0.50000000  0.50000000  0.50000000
   0.50000000  0.50000000  0.75000000
   0.50000000  0.75000000  0.00000000
   0.50000000  0.75000000  0.25000000
   0.50000000  0.75000000  0.50000000
   0.50000000  0.75000000  0.75000000
   0.75000000  0.00000000  0.00000000
   0.75000000  0.00000000  0.25000000
   0.75000000  0.00000000  0.50000000
   0.75000000  0.00000000  0.75000000
   0.75000000  0.25000000  0.00000000
   0.75000000  0.25000000  0.25000000
   0.75000000  0.25000000  0.50000000
   0.75000000  0.25000000  0.75000000
   0.75000000  0.50000000  0.00000000
   0.75000000  0.50000000  0.25000000
   0.75000000  0.50000000  0.50000000
   0.75000000  0.50000000  0.75000000
   0.75000000  0.75000000  0.00000000
   0.75000000  0.75000000  0.25000000
   0.75000000  0.75000000  0.50000000
   0.75000000  0.75000000  0.75000000
 
 position of ions in cartesian coordinates  (Angst):
   0.00000000  0.00000000  0.00000000
   1.70962500  1.70962500  0.00000000
   3.41925000  3.41925000  0.00000000
   5.12887500  5.12887500  0.00000000
   1.70962500  0.00000000  1.70962500
   3.41925000  1.70962500  1.70962500
   5.12887500  3.41925000  1.70962500
   6.83850000  5.12887500  1.70962500
   3.41925000  0.00000000  3.41925000
   5.12887500  1.70962500  3.41925000
   6.83850000  3.41925000  3.41925000
   8.54812500  5.12887500  3.41925000
   5.12887500  0.00000000  5.12887500
   6.83850000  1.70962500  5.12887500
   8.54812500  3.41925000  5.12887500
  10.25775000  5.12887500  5.12887500
   0.00000000  1.70962500  1.70962500
   1.70962500  3.41925000  1.70962500
   3.41925000  5.12887500  1.70962500
   5.12887500  6.83850000  1.70962500
   1.70962500  1.70962500  3.41925000
   3.41925000  3.41925000  3.41925000
   5.12887500  5.12887500  3.41925000
   6.83850000  6.83850000  3.41925000
   3.41925000  1.70962500  5.12887500
   5.12887500  3.41925000  5.12887500
   6.83850000  5.12887500  5.12887500
   8.54812500  6.83850000  5.12887500
   5.12887500  1.70962500  6.83850000
   6.83850000  3.41925000  6.83850000
   8.54812500  5.12887500  6.83850000
  10.25775000  6.83850000  6.83850000
   0.00000000  3.41925000  3.41925000
   1.70962500  5.12887500  3.41925000
   3.41925000  6.83850000  3.41925000
   5.12887500  8.54812500  3.41925000
   1.70962500  3.41925000  5.12887500
   3.41925000  5.12887500  5.12887500
   5.12887500  6.83850000  5.12887500
   6.83850000  8.54812500  5.12887500
   3.41925000  3.41925000  6.83850000
   5.12887500  5.12887500  6.83850000
   6.83850000  6.83850000  6.83850000
   8.54812500  8.54812500  6.83850000
   5.12887500  3.41925000  8.54812500
   6.83850000  5.12887500  8.54812500
   8.54812500  6.83850000  8.54812500
  10.25775000  8.54812500  8.54812500
   0.00000000  5.12887500  5.12887500
   1.70962500  6.83850000  5.12887500
   3.41925000  8.54812500  5.12887500
   5.12887500 10.25775000  5.12887500
   1.70962500  5.12887500  6.83850000
   3.41925000  6.83850000  6.83850000
   5.12887500  8.54812500  6.83850000
   6.83850000 10.25775000  6.83850000
   3.41925000  5.12887500  8.54812500
   5.12887500  6.83850000  8.54812500
   6.83850000  8.54812500  8.54812500
   8.54812500 10.25775000  8.54812500
   5.12887500  5.12887500 10.25775000
   6.83850000  6.83850000 10.25775000
   8.54812500  8.54812500 10.25775000
  10.25775000 10.25775000 10.25775000
 


--------------------------------------------------------------------------------------------------------


 k-point  1 :   0.0000 0.0000 0.0000  plane waves:   14331
 k-point  2 :   0.3333 0.0000 0.0000  plane waves:   14344
 k-point  3 :   0.3333 0.3333 0.0000  plane waves:   14276
 k-point  4 :  -0.3333 0.3333 0.0000  plane waves:   14375

 maximum and minimum number of plane-waves per node :     14375    14276

 maximum number of plane-waves:     14375
 maximum index in each direction: 
   IXMAX=   17   IYMAX=   16   IZMAX=   16
   IXMIN=  -17   IYMIN=  -17   IZMIN=  -16

 NGX is ok and might be reduce to  70
 NGY is ok and might be reduce to  68
 NGZ is ok and might be reduce to  66

 serial   3D FFT for wavefunctions
 parallel 3D FFT for charge:
    minimum data exchange during FFTs selected (reduces bandwidth)


 total amount of memory used by VASP on root node   462876. kBytes
========================================================================

   base      :      30000. kBytes
   nonlr-proj:      41743. kBytes
   fftplans  :      13919. kBytes
   grid      :      53236. kBytes
   one-center:       1990. kBytes
   wavefun   :     321988. kBytes
 
     INWAV:  cpu time    0.0000: real time    0.0000
 Broyden mixing: mesh for mixing (old mesh)
   NGX = 33   NGY = 33   NGZ = 33
  (NGX  =112   NGY  =112   NGZ  =112)
  gives a total of  35937 points

 initial charge density was supplied:
 charge density of overlapping atoms calculated
 number of electron    1024.0000000 magnetization      64.0000000
 keeping initial charge density in first step


--------------------------------------------------------------------------------------------------------


 Maximum index for non-local projection operator         3781
 Maximum index for augmentation-charges         1443 (set IRDMAX)


--------------------------------------------------------------------------------------------------------


 First call to EWALD:  gamma=   0.206
 Maximum number of real-space cells 3x 3x 3
 Maximum number of reciprocal cells 3x 3x 3

 FEWALD executed in parallel
    FEWALD:  cpu time    0.0070: real time    0.0068


----------------------------------------- Iteration    1(   1)  ---------------------------------------


    POTLOK:  cpu time    0.4299: real time    0.4301
    SETDIJ:  cpu time    0.0920: real time    0.0907
     EDDAV:  cpu time  166.6037: real time  166.4678
       DOS:  cpu time    0.0040: real time    0.0036
    --------------------------------------------
      LOOP:  cpu time  167.1306: real time  166.9951

 eigenvalue-minimisations  : 11504
 total energy-change (2. order) : 0.1629370E+05  (-0.5865048E+05)
 number of electron    1024.0000000 magnetization      64.0000000
 augmentation part     1024.0000000 magnetization      64.0000000

 Free energy of the ion-electron system (eV)
  ---------------------------------------------------
  alpha Z        PSCENC =     10788.19976491
  Ewald energy   TEWEN  =   -158176.33604469
  -Hartree energ DENC   =    -59049.51858345
  -exchange      EXHF   =         0.00000000
  -V(xc)+E(xc)   XCENC  =      5740.19685534
  PAW double counting   =    172361.15642774  -181272.45834873
  entropy T*S    EENTRO =        -0.01144910
  eigenvalues    EBANDS =      1885.81766540
  atomic energy  EATOM  =    224016.65216645
  Solvation  Ediel_sol  =         0.00000000
  ---------------------------------------------------
  free energy    TOTEN  =     16293.69845388 eV

  energy without entropy =    16293.70990298  energy(sigma->0) =    16293.70227024


--------------------------------------------------------------------------------------------------------




----------------------------------------- Iteration    1(   2)  ---------------------------------------


     EDDAV:  cpu time  153.2227: real time  153.0972
       DOS:  cpu time    0.0040: real time    0.0038
    --------------------------------------------
      LOOP:  cpu time  153.2267: real time  153.1017

 eigenvalue-minimisations  : 10368
 total energy-change (2. order) :-0.1504342E+05  (-0.1458049E+05)
 number of electron    1024.0000000 magnetization      64.0000000
 augmentation part     1024.0000000 magnetization      64.0000000

 Free energy of the ion-electron system (eV)
  ---------------------------------------------------
  alpha Z        PSCENC =     10788.19976491
  Ewald energy   TEWEN  =   -158176.33604469
  -Hartree energ DENC   =    -59049.51858345
  -exchange      EXHF   =         0.00000000
  -V(xc)+E(xc)   XCENC  =      5740.19685534
  PAW double counting   =    172361.15642774  -181272.45834873
  entropy T*S    EENTRO =        -0.00332242
  eigenvalues    EBANDS =    -13157.60583519
  atomic energy  EATOM  =    224016.65216645
  Solvation  Ediel_sol  =         0.00000000
  ---------------------------------------------------
  free energy    TOTEN  =      1250.28307997 eV

  energy without entropy =     1250.28640239  energy(sigma->0) =     1250.28418744


--------------------------------------------------------------------------------------------------------




----------------------------------------- Iteration    1(   3)  ---------------------------------------


     EDDAV:  cpu time  154.2206: real time  154.0942
       DOS:  cpu time    0.0040: real time    0.0042
    --------------------------------------------
      LOOP:  cpu time  154.2256: real time  154.0990

 eigenvalue-minimisations  : 10464
 total energy-change (2. order) :-0.1586585E+04  (-0.1334787E+04)
 number of electron    1024.0000000 magnetization      64.0000000
 augmentation part     1024.0000000 magnetization      64.0000000

 Free energy of the ion-electron system (eV)
  ---------------------------------------------------
  alpha Z        PSCENC =     10788.19976491
  Ewald energy   TEWEN  =   -158176.33604469
  -Hartree energ DENC   =    -59049.51858345
  -exchange      EXHF   =         0.00000000
  -V(xc)+E(xc)   XCENC  =      5740.19685534
  PAW double counting   =    172361.15642774  -181272.45834873
  entropy T*S    EENTRO =         0.02934700
  eigenvalues    EBANDS =    -14744.22309010
  atomic energy  EATOM  =    224016.65216645
  Solvation  Ediel_sol  =         0.00000000
  ---------------------------------------------------
  free energy    TOTEN  =      -336.30150551 eV

  energy without entropy =     -336.33085252  energy(sigma->0) =     -336.31128785


--------------------------------------------------------------------------------------------------------




----------------------------------------- Iteration    1(   4)  ---------------------------------------


     EDDAV:  cpu time  160.8385: real time  160.7075
       DOS:  cpu time    0.0050: real time    0.0043
    --------------------------------------------
      LOOP:  cpu time  160.8445: real time  160.7123

 eigenvalue-minimisations  : 11064
 total energy-change (2. order) :-0.9072362E+02  (-0.8819312E+02)
 number of electron    1024.0000000 magnetization      64.0000000
 augmentation part     1024.0000000 magnetization      64.0000000

 Free energy of the ion-electron system (eV)
  ---------------------------------------------------
  alpha Z        PSCENC =     10788.19976491
  Ewald energy   TEWEN  =   -158176.33604469
  -Hartree energ DENC   =    -59049.51858345
  -exchange      EXHF   =         0.00000000
  -V(xc)+E(xc)   XCENC  =      5740.19685534
  PAW double counting   =    172361.15642774  -181272.45834873
  entropy T*S    EENTRO =         0.09754562
  eigenvalues    EBANDS =    -14835.01490947
  atomic energy  EATOM  =    224016.65216645
  Solvation  Ediel_sol  =         0.00000000
  ---------------------------------------------------
  free energy    TOTEN  =      -427.02512627 eV

  energy without entropy =     -427.12267189  energy(sigma->0) =     -427.05764147


--------------------------------------------------------------------------------------------------------




----------------------------------------- Iteration    1(   5)  ---------------------------------------


     EDDAV:  cpu time  160.3776: real time  160.2454
       DOS:  cpu time    0.0040: real time    0.0042
    CHARGE:  cpu time    9.3486: real time    9.3411
    MIXING:  cpu time    0.0090: real time    0.0087
    --------------------------------------------
      LOOP:  cpu time  169.7392: real time  169.6001

 eigenvalue-minimisations  : 11040
 total energy-change (2. order) :-0.1501574E+01  (-0.1499879E+01)
 number of electron    1024.0008022 magnetization      57.4831627
 augmentation part      574.6678431 magnetization      46.0451366

 Broyden mixing:
  rms(total) = 0.66770E+01    rms(broyden)= 0.66756E+01
  rms(prec ) = 0.91511E+01
  weight for this iteration     100.00

 Free energy of the ion-electron system (eV)
  ---------------------------------------------------
  alpha Z        PSCENC =     10788.19976491
  Ewald energy   TEWEN  =   -158176.33604469
  -Hartree energ DENC   =    -59049.51858345
  -exchange      EXHF   =         0.00000000
  -V(xc)+E(xc)   XCENC  =      5740.19685534
  PAW double counting   =    172361.15642774  -181272.45834873
  entropy T*S    EENTRO =         0.09851842
  eigenvalues    EBANDS =    -14836.51745649
  atomic energy  EATOM  =    224016.65216645
  Solvation  Ediel_sol  =         0.00000000
  ---------------------------------------------------
  free energy    TOTEN  =      -428.52670049 eV

  energy without entropy =     -428.62521891  energy(sigma->0) =     -428.55953997


--------------------------------------------------------------------------------------------------------




----------------------------------------- Iteration    1(   6)  ---------------------------------------


    POTLOK:  cpu time    0.4419: real time    0.4421
    SETDIJ:  cpu time    0.0920: real time    0.0913
     EDDAV:  cpu time  158.6249: real time  158.4957
       DOS:  cpu time    0.0050: real time    0.0042
    CHARGE:  cpu time    9.1166: real time    9.1098
    MIXING:  cpu time    0.0090: real time    0.0098
    --------------------------------------------
      LOOP:  cpu time  168.2904: real time  168.1537

 eigenvalue-minimisations  : 10888
 total energy-change (2. order) : 0.4128911E+02  (-0.5238076E+02)
 number of electron    1024.0008785 magnetization      50.3764959
 augmentation part      625.1225088 magnetization      44.9430216

 Broyden mixing:
  rms(total) = 0.41572E+01    rms(broyden)= 0.41570E+01
  rms(prec ) = 0.51900E+01
  weight for this iteration     100.00

 eigenvalues of (default mixing * dielectric matrix)
  average eigenvalue GAMMA=   0.5980
  0.5980

 Free energy of the ion-electron system (eV)
  ---------------------------------------------------
  alpha Z        PSCENC =     10788.19976491
  Ewald energy   TEWEN  =   -158176.33604469
  -Hartree energ DENC   =    -56020.92361981
  -exchange      EXHF   =         0.00000000
  -V(xc)+E(xc)   XCENC  =      5622.16273091
  PAW double counting   =    168942.65660299  -177565.18725060
  entropy T*S    EENTRO =        -0.28951443
  eigenvalues    EBANDS =    -17994.17242334
  atomic energy  EATOM  =    224016.65216645
  Solvation  Ediel_sol  =         0.00000000
  ---------------------------------------------------
  free energy    TOTEN  =      -387.23758762 eV

  energy without entropy =     -386.94807319  energy(sigma->0) =     -387.14108281


--------------------------------------------------------------------------------------------------------




----------------------------------------- Iteration    1(   7)  ---------------------------------------


    POTLOK:  cpu time    0.4369: real time    0.4360
    SETDIJ:  cpu time    0.0910: real time    0.0915
     EDDAV:  cpu time  158.5519: real time  158.4218
       DOS:  cpu time    0.0040: real time    0.0041
    CHARGE:  cpu time    9.1406: real time    9.1324
    MIXING:  cpu time    0.0100: real time    0.0105
    --------------------------------------------
      LOOP:  cpu time  168.2354: real time  168.0971

 eigenvalue-minimisations  : 10880
 total energy-change (2. order) : 0.2065045E+02  (-0.8898390E+01)
 number of electron    1024.0008489 magnetization      42.7318176
 augmentation part      605.7241884 magnetization      35.3191966

 Broyden mixing:
  rms(total) = 0.61334E+00    rms(broyden)= 0.61316E+00
  rms(prec ) = 0.75008E+00
  weight for this iteration     100.00

 eigenvalues of (default mixing * dielectric matrix)
  average eigenvalue GAMMA=   0.9028
  1.1860  0.6197

 Free energy of the ion-electron system (eV)
  ---------------------------------------------------
  alpha Z        PSCENC =     10788.19976491
  Ewald energy   TEWEN  =   -158176.33604469
  -Hartree energ DENC   =    -56971.09502046
  -exchange      EXHF   =         0.00000000
  -V(xc)+E(xc)   XCENC  =      5658.20309438
  PAW double counting   =    171328.76689261  -180223.61444378
  entropy T*S    EENTRO =        -0.18057719
  eigenvalues    EBANDS =    -16787.18297405
  atomic energy  EATOM  =    224016.65216645
  Solvation  Ediel_sol  =         0.00000000
  ---------------------------------------------------
  free energy    TOTEN  =      -366.58714181 eV

  energy without entropy =     -366.40656463  energy(sigma->0) =     -366.52694942


--------------------------------------------------------------------------------------------------------




----------------------------------------- Iteration    1(   8)  ---------------------------------------


    POTLOK:  cpu time    0.4359: real time    0.4360
    SETDIJ:  cpu time    0.0920: real time    0.0913
     EDDAV:  cpu time  160.6556: real time  160.5240
       DOS:  cpu time    0.0040: real time    0.0042
    CHARGE:  cpu time    9.3026: real time    9.2950
    MIXING:  cpu time    0.0120: real time    0.0110
    --------------------------------------------
      LOOP:  cpu time  170.5031: real time  170.3624

 eigenvalue-minimisations  : 11072
 total energy-change (2. order) : 0.1611148E+00  (-0.9828801E-01)
 number of electron    1024.0008489 magnetization      39.0750363
 augmentation part      605.6289919 magnetization      33.0707399

 Broyden mixing:
  rms(total) = 0.26203E+00    rms(broyden)= 0.26202E+00
  rms(prec ) = 0.34179E+00
  weight for this iteration     100.00

 eigenvalues of (default mixing * dielectric matrix)
  average eigenvalue GAMMA=   1.1872
  0.6378  0.8441  2.0797

 Free energy of the ion-electron system (eV)
  ---------------------------------------------------
  alpha Z        PSCENC =     10788.19976491
  Ewald energy   TEWEN  =   -158176.33604469
  -Hartree energ DENC   =    -56804.53503455
  -exchange      EXHF   =         0.00000000
  -V(xc)+E(xc)   XCENC  =      5652.21805787
  PAW double counting   =    172418.97676962  -181438.08158272
  entropy T*S    EENTRO =        -0.24503428
  eigenvalues    EBANDS =    -16823.27508965
  atomic energy  EATOM  =    224016.65216645
  Solvation  Ediel_sol  =         0.00000000
  ---------------------------------------------------
  free energy    TOTEN  =      -366.42602705 eV

  energy without entropy =     -366.18099277  energy(sigma->0) =     -366.34434895


--------------------------------------------------------------------------------------------------------




----------------------------------------- Iteration    1(   9)  ---------------------------------------


    POTLOK:  cpu time    0.4369: real time    0.4370
    SETDIJ:  cpu time    0.0920: real time    0.0914
     EDDAV:  cpu time  181.6134: real time  181.4638
       DOS:  cpu time    0.0040: real time    0.0043
    CHARGE:  cpu time    9.1426: real time    9.1358
    MIXING:  cpu time    0.0110: real time    0.0113
    --------------------------------------------
      LOOP:  cpu time  191.2999: real time  191.1443

 eigenvalue-minimisations  : 12920
 total energy-change (2. order) : 0.8299504E-01  (-0.1031045E-01)
 number of electron    1024.0008499 magnetization      38.9406964
 augmentation part      606.2489868 magnetization      33.6748532

 Broyden mixing:
  rms(total) = 0.56407E-01    rms(broyden)= 0.56396E-01
  rms(prec ) = 0.58087E-01
  weight for this iteration     100.00

 eigenvalues of (default mixing * dielectric matrix)
  average eigenvalue GAMMA=   1.1246
  2.3123  0.9212  0.6325  0.6325

 Free energy of the ion-electron system (eV)
  ---------------------------------------------------
  alpha Z        PSCENC =     10788.19976491
  Ewald energy   TEWEN  =   -158176.33604469
  -Hartree energ DENC   =    -56684.28158134
  -exchange      EXHF   =         0.00000000
  -V(xc)+E(xc)   XCENC  =      5647.83876850
  PAW double counting   =    173055.39779262  -182135.64985620
  entropy T*S    EENTRO =        -0.26958962
  eigenvalues    EBANDS =    -16877.89445264
  atomic energy  EATOM  =    224016.65216645
  Solvation  Ediel_sol  =         0.00000000
  ---------------------------------------------------
  free energy    TOTEN  =      -366.34303201 eV

  energy without entropy =     -366.07344239  energy(sigma->0) =     -366.25316880


--------------------------------------------------------------------------------------------------------




----------------------------------------- Iteration    1(  10)  ---------------------------------------


    POTLOK:  cpu time    0.4379: real time    0.4373
    SETDIJ:  cpu time    0.0910: real time    0.0908
     EDDAV:  cpu time  163.1142: real time  162.9798
       DOS:  cpu time    0.0040: real time    0.0040
    CHARGE:  cpu time    9.0766: real time    9.0700
    MIXING:  cpu time    0.0120: real time    0.0125
    --------------------------------------------
      LOOP:  cpu time  172.7367: real time  172.5953

 eigenvalue-minimisations  : 11272
 total energy-change (2. order) :-0.3315508E-02  (-0.9189380E-03)
 number of electron    1024.0008498 magnetization      39.0122000
 augmentation part      606.2521831 magnetization      33.7338401

 Broyden mixing:
  rms(total) = 0.21768E-01    rms(broyden)= 0.21765E-01
  rms(prec ) = 0.23033E-01
  weight for this iteration     100.00

 eigenvalues of (default mixing * dielectric matrix)
  average eigenvalue GAMMA=   1.1713
  2.3564  1.1214  1.1214  0.6287  0.6287

 Free energy of the ion-electron system (eV)
  ---------------------------------------------------
  alpha Z        PSCENC =     10788.19976491
  Ewald energy   TEWEN  =   -158176.33604469
  -Hartree energ DENC   =    -56678.07601189
  -exchange      EXHF   =         0.00000000
  -V(xc)+E(xc)   XCENC  =      5647.62764508
  PAW double counting   =    173160.81284884  -182245.06726437
  entropy T*S    EENTRO =        -0.27051844
  eigenvalues    EBANDS =    -16879.88893340
  atomic energy  EATOM  =    224016.65216645
  Solvation  Ediel_sol  =         0.00000000
  ---------------------------------------------------
  free energy    TOTEN  =      -366.34634751 eV

  energy without entropy =     -366.07582907  energy(sigma->0) =     -366.25617470


--------------------------------------------------------------------------------------------------------




----------------------------------------- Iteration    1(  11)  ---------------------------------------


    POTLOK:  cpu time    0.4349: real time    0.4345
    SETDIJ:  cpu time    0.0920: real time    0.0912
     EDDAV:  cpu time  162.2373: real time  162.1052
       DOS:  cpu time    0.0050: real time    0.0053
    CHARGE:  cpu time    9.0946: real time    9.0861
    MIXING:  cpu time    0.0130: real time    0.0130
    --------------------------------------------
      LOOP:  cpu time  171.8779: real time  171.7362

 eigenvalue-minimisations  : 11152
 total energy-change (2. order) :-0.8620054E-03  (-0.1578253E-03)
 number of electron    1024.0008498 magnetization      38.9490391
 augmentation part      606.2188878 magnetization      33.6289954

 Broyden mixing:
  rms(total) = 0.71715E-02    rms(broyden)= 0.71686E-02
  rms(prec ) = 0.77046E-02
  weight for this iteration     100.00

 eigenvalues of (default mixing * dielectric matrix)
  average eigenvalue GAMMA=   1.1393
  2.4017  1.2071  1.2071  0.7505  0.6347  0.6347

 Free energy of the ion-electron system (eV)
  ---------------------------------------------------
  alpha Z        PSCENC =     10788.19976491
  Ewald energy   TEWEN  =   -158176.33604469
  -Hartree energ DENC   =    -56680.64367913
  -exchange      EXHF   =         0.00000000
  -V(xc)+E(xc)   XCENC  =      5647.69184154
  PAW double counting   =    173255.54128897  -182339.20018441
  entropy T*S    EENTRO =        -0.27117332
  eigenvalues    EBANDS =    -16877.98118983
  atomic energy  EATOM  =    224016.65216645
  Solvation  Ediel_sol  =         0.00000000
  ---------------------------------------------------
  free energy    TOTEN  =      -366.34720952 eV

  energy without entropy =     -366.07603621  energy(sigma->0) =     -366.25681842


--------------------------------------------------------------------------------------------------------




----------------------------------------- Iteration    1(  12)  ---------------------------------------


    POTLOK:  cpu time    0.4369: real time    0.4369
    SETDIJ:  cpu time    0.0910: real time    0.0912
     EDDAV:  cpu time  284.4068: real time22413.5847
       DOS:  cpu time    0.0250: real time    0.0244
    CHARGE:  cpu time   16.1485: real time   16.1354
    MIXING:  cpu time    0.0450: real time    0.0450
    --------------------------------------------
      LOOP:  cpu time  301.1542: real time22430.3182

 eigenvalue-minimisations  : 10920
 total energy-change (2. order) :-0.1237624E-03  (-0.1805123E-04)
 number of electron    1024.0008498 magnetization      38.8906835
 augmentation part      606.2380675 magnetization      33.5775996

 Broyden mixing:
  rms(total) = 0.50680E-02    rms(broyden)= 0.50673E-02
  rms(prec ) = 0.56799E-02
  weight for this iteration     100.00

 eigenvalues of (default mixing * dielectric matrix)
  average eigenvalue GAMMA=   1.2354
  2.4813  1.6341  1.6341  0.9827  0.6502  0.6502  0.6152

 Free energy of the ion-electron system (eV)
  ---------------------------------------------------
  alpha Z        PSCENC =     10788.19976491
  Ewald energy   TEWEN  =   -158176.33604469
  -Hartree energ DENC   =    -56679.76154830
  -exchange      EXHF   =         0.00000000
  -V(xc)+E(xc)   XCENC  =      5647.64711337
  PAW double counting   =    173295.08279543  -182378.35320888
  entropy T*S    EENTRO =        -0.27201047
  eigenvalues    EBANDS =    -16879.20636110
  atomic energy  EATOM  =    224016.65216645
  Solvation  Ediel_sol  =         0.00000000
  ---------------------------------------------------
  free energy    TOTEN  =      -366.34733328 eV

  energy without entropy =     -366.07532281  energy(sigma->0) =     -366.25666312


--------------------------------------------------------------------------------------------------------




----------------------------------------- Iteration    1(  13)  ---------------------------------------


    POTLOK:  cpu time    0.7959: real time    0.7959
    SETDIJ:  cpu time    0.1910: real time    0.1899
     EDDAV:  cpu time  273.8074: real time  273.5817
       DOS:  cpu time    0.0250: real time    0.0249
    CHARGE:  cpu time   16.2405: real time   16.2273
    MIXING:  cpu time    0.0460: real time    0.0463
    --------------------------------------------
      LOOP:  cpu time  291.1167: real time  290.8775

 eigenvalue-minimisations  :  9944
 total energy-change (2. order) :-0.5493930E-06  (-0.1290025E-05)
 number of electron    1024.0008498 magnetization      38.8699454
 augmentation part      606.2401704 magnetization      33.5640063

 Broyden mixing:
  rms(total) = 0.24281E-02    rms(broyden)= 0.24279E-02
  rms(prec ) = 0.32430E-02
  weight for this iteration     100.00

 eigenvalues of (default mixing * dielectric matrix)
  average eigenvalue GAMMA=   1.2896
  2.4722  2.1890  1.8388  1.0112  0.6294  0.6294  0.7736  0.7736

 Free energy of the ion-electron system (eV)
  ---------------------------------------------------
  alpha Z        PSCENC =     10788.19976491
  Ewald energy   TEWEN  =   -158176.33604469
  -Hartree energ DENC   =    -56680.42242719
  -exchange      EXHF   =         0.00000000
  -V(xc)+E(xc)   XCENC  =      5647.66347181
  PAW double counting   =    173318.70608239  -182401.26468915
  entropy T*S    EENTRO =        -0.27228174
  eigenvalues    EBANDS =    -16879.27337662
  atomic energy  EATOM  =    224016.65216645
  Solvation  Ediel_sol  =         0.00000000
  ---------------------------------------------------
  free energy    TOTEN  =      -366.34733383 eV

  energy without entropy =     -366.07505209  energy(sigma->0) =     -366.25657325


--------------------------------------------------------------------------------------------------------




----------------------------------------- Iteration    1(  14)  ---------------------------------------


    POTLOK:  cpu time    0.7899: real time    0.7897
    SETDIJ:  cpu time    0.1800: real time    0.1791
     EDDAV:  cpu time  266.7494: real time  266.5297
       DOS:  cpu time    0.0250: real time    0.0251
    CHARGE:  cpu time   16.1745: real time   16.1615
    MIXING:  cpu time    0.0550: real time    0.0543
    --------------------------------------------
      LOOP:  cpu time  283.9848: real time  283.7504

 eigenvalue-minimisations  :  9584
 total energy-change (2. order) : 0.3245517E-04  (-0.1364166E-05)
 number of electron    1024.0008498 magnetization      38.8681608
 augmentation part      606.2328051 magnetization      33.5646935

 Broyden mixing:
  rms(total) = 0.38412E-03    rms(broyden)= 0.38347E-03
  rms(prec ) = 0.46739E-03
  weight for this iteration     100.00

 eigenvalues of (default mixing * dielectric matrix)
  average eigenvalue GAMMA=   1.2637
  2.5291  2.4703  1.7248  1.0383  0.8478  0.8478  0.6364  0.6364  0.6426

 Free energy of the ion-electron system (eV)
  ---------------------------------------------------
  alpha Z        PSCENC =     10788.19976491
  Ewald energy   TEWEN  =   -158176.33604469
  -Hartree energ DENC   =    -56681.46046939
  -exchange      EXHF   =         0.00000000
  -V(xc)+E(xc)   XCENC  =      5647.69969191
  PAW double counting   =    173325.81221485  -182407.91605127
  entropy T*S    EENTRO =        -0.27227308
  eigenvalues    EBANDS =    -16878.72630107
  atomic energy  EATOM  =    224016.65216645
  Solvation  Ediel_sol  =         0.00000000
  ---------------------------------------------------
  free energy    TOTEN  =      -366.34730138 eV

  energy without entropy =     -366.07502830  energy(sigma->0) =     -366.25654368


--------------------------------------------------------------------------------------------------------




----------------------------------------- Iteration    1(  15)  ---------------------------------------


    POTLOK:  cpu time    0.7829: real time    0.7836
    SETDIJ:  cpu time    0.1880: real time    0.1863
     EDDAV:  cpu time  181.6024: real time  181.4530
       DOS:  cpu time    0.0150: real time    0.0148
    CHARGE:  cpu time   16.2185: real time   16.2050
    MIXING:  cpu time    0.0580: real time    0.0577
    --------------------------------------------
      LOOP:  cpu time  198.8668: real time  198.7129

 eigenvalue-minimisations  :  5504
 total energy-change (2. order) : 0.3214402E-05  (-0.7359119E-07)
 number of electron    1024.0008498 magnetization      38.8688363
 augmentation part      606.2315997 magnetization      33.5653242

 Broyden mixing:
  rms(total) = 0.94292E-04    rms(broyden)= 0.94125E-04
  rms(prec ) = 0.95534E-04
  weight for this iteration     100.00

 eigenvalues of (default mixing * dielectric matrix)
  average eigenvalue GAMMA=   1.2337
  2.5923  2.4496  1.6614  1.1843  0.9128  0.9128  0.7281  0.6351  0.6351  0.6251

 Free energy of the ion-electron system (eV)
  ---------------------------------------------------
  alpha Z        PSCENC =     10788.19976491
  Ewald energy   TEWEN  =   -158176.33604469
  -Hartree energ DENC   =    -56681.59106936
  -exchange      EXHF   =         0.00000000
  -V(xc)+E(xc)   XCENC  =      5647.70421210
  PAW double counting   =    173326.56735828  -182408.62294717
  entropy T*S    EENTRO =        -0.27226848
  eigenvalues    EBANDS =    -16878.64847020
  atomic energy  EATOM  =    224016.65216645
  Solvation  Ediel_sol  =         0.00000000
  ---------------------------------------------------
  free energy    TOTEN  =      -366.34729816 eV

  energy without entropy =     -366.07502968  energy(sigma->0) =     -366.25654200


--------------------------------------------------------------------------------------------------------




----------------------------------------- Iteration    1(  16)  ---------------------------------------


    POTLOK:  cpu time    0.7889: real time    0.7875
    SETDIJ:  cpu time    0.1900: real time    0.1903
     EDDAV:  cpu time  178.6388: real time  178.4917
       DOS:  cpu time    0.0340: real time    0.0337
    --------------------------------------------
      LOOP:  cpu time  179.6517: real time  179.5159

 eigenvalue-minimisations  :  5472
 total energy-change (2. order) :-0.3666792E-06  (-0.1010456E-07)
 number of electron    1024.0008498 magnetization      38.8688363
 augmentation part      606.2315997 magnetization      33.5653242

 Free energy of the ion-electron system (eV)
  ---------------------------------------------------
  alpha Z        PSCENC =     10788.19976491
  Ewald energy   TEWEN  =   -158176.33604469
  -Hartree energ DENC   =    -56681.58798861
  -exchange      EXHF   =         0.00000000
  -V(xc)+E(xc)   XCENC  =      5647.70422327
  PAW double counting   =    173326.43864455  -182408.49485254
  entropy T*S    EENTRO =        -0.27226264
  eigenvalues    EBANDS =    -16878.65094922
  atomic energy  EATOM  =    224016.65216645
  Solvation  Ediel_sol  =         0.00000000
  ---------------------------------------------------
  free energy    TOTEN  =      -366.34729853 eV

  energy without entropy =     -366.07503589  energy(sigma->0) =     -366.25654432


--------------------------------------------------------------------------------------------------------




 average (electrostatic) potential at core
  the test charge radii are     0.8614
  (the norm of the test charge is              1.0000)
       1 -78.3906       2 -78.3906       3 -78.3906       4 -78.3906       5 -78.3906
       6 -78.3906       7 -78.3906       8 -78.3906       9 -78.3906      10 -78.3906
      11 -78.3906      12 -78.3906      13 -78.3906      14 -78.3906      15 -78.3906
      16 -78.3906      17 -78.3906      18 -78.3906      19 -78.3906      20 -78.3906
      21 -78.3906      22 -78.3906      23 -78.3906      24 -78.3906      25 -78.3906
      26 -78.3906      27 -78.3906      28 -78.3906      29 -78.3906      30 -78.3906
      31 -78.3906      32 -78.3906      33 -78.3906      34 -78.3906      35 -78.3906
      36 -78.3906      37 -78.3906      38 -78.3906      39 -78.3906      40 -78.3906
      41 -78.3906      42 -78.3906      43 -78.3906      44 -78.3906      45 -78.3906
      46 -78.3906      47 -78.3906      48 -78.3906      49 -78.3906      50 -78.3906
      51 -78.3906      52 -78.3906      53 -78.3906      54 -78.3906      55 -78.3906
      56 -78.3906      57 -78.3906      58 -78.3906      59 -78.3906      60 -78.3906
      61 -78.3906      62 -78.3906      63 -78.3906      64 -78.3906
 
 
 
 E-fermi :   8.9960     XC(G=0): -14.3349     alpha+bet :-16.2013


 spin component 1

 k-point     1 :       0.0000    0.0000    0.0000
  band No.  band energies     occupation 
      1     -55.2343      1.00000
      2     -55.2342      1.00000
      3     -55.2342      1.00000
      4     -55.2342      1.00000
      5     -55.2176      1.00000
      6     -55.2176      1.00000
      7     -55.2176      1.00000
      8     -55.1837      1.00000
      9     -55.1837      1.00000
     10     -55.1837      1.00000
     11     -55.1837      1.00000
     12     -55.1837      1.00000
     13     -55.1837      1.00000
     14     -55.1837      1.00000
     15     -55.1837      1.00000
     16     -55.1837      1.00000
     17     -55.1837      1.00000
     18     -55.1837      1.00000
     19     -55.1837      1.00000
     20     -55.1837      1.00000
     21     -55.1837      1.00000
     22     -55.1837      1.00000
     23     -55.1837      1.00000
     24     -55.1837      1.00000
     25     -55.1837      1.00000
     26     -55.1837      1.00000
     27     -55.1837      1.00000
     28     -55.1837      1.00000
     29     -55.1837      1.00000
     30     -55.1837      1.00000
     31     -55.1837      1.00000
     32     -55.1500      1.00000
     33     -55.1500      1.00000
     34     -55.1500      1.00000
     35     -55.1500      1.00000
     36     -55.1500      1.00000
     37     -55.1500      1.00000
     38     -55.1499      1.00000
     39     -55.1499      1.00000
     40     -55.1499      1.00000
     41     -55.1499      1.00000
     42     -55.1499      1.00000
     43     -55.1499      1.00000
     44     -55.1326      1.00000
     45     -55.1326      1.00000
     46     -55.1326      1.00000
     47     -55.1326      1.00000
     48     -55.1326      1.00000
     49     -55.1326      1.00000
     50     -55.1326      1.00000
     51     -55.1326      1.00000
     52     -55.1326      1.00000
     53     -55.1326      1.00000
     54     -55.1326      1.00000
     55     -55.1326      1.00000
     56     -55.0864      1.00000
     57     -55.0864      1.00000
     58     -55.0863      1.00000
     59     -55.0863      1.00000
     60     -55.0863      1.00000
     61     -55.0863      1.00000
     62     -55.0863      1.00000
     63     -55.0863      1.00000
     64     -55.0803      1.00000
     65     -55.0803      1.00000
     66     -55.0803      1.00000
     67     -55.0803      1.00000
     68     -55.0803      1.00000
     69     -55.0803      1.00000
     70     -55.0624      1.00000
     71     -55.0624      1.00000
     72     -55.0624      1.00000
     73     -55.0624      1.00000
     74     -55.0624      1.00000
     75     -55.0624      1.00000
     76     -55.0624      1.00000
     77     -55.0624      1.00000
     78     -55.0624      1.00000
     79     -55.0624      1.00000
     80     -55.0624      1.00000
     81     -55.0624      1.00000
     82     -55.0562      1.00000
     83     -55.0562      1.00000
     84     -55.0562      1.00000
     85     -55.0562      1.00000
     86     -55.0562      1.00000
     87     -55.0562      1.00000
     88     -55.0561      1.00000
     89     -55.0561      1.00000
     90     -55.0561      1.00000
     91     -55.0561      1.00000
     92     -55.0561      1.00000
     93     -55.0561      1.00000
     94     -55.0561      1.00000
     95     -55.0561      1.00000
     96     -55.0561      1.00000
     97     -55.0561      1.00000
     98     -55.0561      1.00000
     99     -55.0561      1.00000
    100     -55.0561      1.00000
    101     -55.0561      1.00000
    102     -55.0561      1.00000
    103     -55.0561      1.00000
    104     -55.0561      1.00000
    105     -55.0561      1.00000
    106     -55.0497      1.00000
    107     -55.0497      1.00000
    108     -55.0497      1.00000
    109     -55.0497      1.00000
    110     -55.0497      1.00000
    111     -55.0497      1.00000
    112     -55.0470      1.00000
    113     -55.0470      1.00000
    114     -55.0470      1.00000
    115     -55.0470      1.00000
    116     -55.0470      1.00000
    117     -55.0470      1.00000
    118     -55.0132      1.00000
    119     -55.0132      1.00000
    120     -55.0132      1.00000
    121     -55.0132      1.00000
    122     -55.0132      1.00000
    123     -55.0132      1.00000
    124     -55.0132      1.00000
    125     -55.0132      1.00000
    126     -55.0132      1.00000
    127     -55.0132      1.00000
    128     -55.0132      1.00000
    129     -55.0132      1.00000
    130     -55.0131      1.00000
    131     -55.0131      1.00000
    132     -55.0131      1.00000
    133     -55.0131      1.00000
    134     -55.0131      1.00000
    135     -55.0131      1.00000
    136     -55.0131      1.00000
    137     -55.0131      1.00000
    138     -55.0131      1.00000
    139     -55.0131      1.00000
    140     -55.0131      1.00000
    141     -55.0131      1.00000
    142     -54.9920      1.00000
    143     -54.9920      1.00000
    144     -54.9920      1.00000
    145     -54.9920      1.00000
    146     -54.9920      1.00000
    147     -54.9920      1.00000
    148     -54.9920      1.00000
    149     -54.9920      1.00000
    150     -54.9920      1.00000
    151     -54.9920      1.00000
    152     -54.9920      1.00000
    153     -54.9920      1.00000
    154     -54.9793      1.00000
    155     -54.9793      1.00000
    156     -54.9793      1.00000
    157     -54.9793      1.00000
    158     -54.9793      1.00000
    159     -54.9793      1.00000
    160     -54.9792      1.00000
    161     -54.9792      1.00000
    162     -54.9792      1.00000
    163     -54.9792      1.00000
    164     -54.9792      1.00000
    165     -54.9792      1.00000
    166     -54.9791      1.00000
    167     -54.9791      1.00000
    168     -54.9791      1.00000
    169     -54.9791      1.00000
    170     -54.9791      1.00000
    171     -54.9791      1.00000
    172     -54.9791      1.00000
    173     -54.9791      1.00000
    174     -54.9583      1.00000
    175     -54.9583      1.00000
    176     -54.9583      1.00000
    177     -54.9583      1.00000
    178     -54.9583      1.00000
    179     -54.9583      1.00000
    180     -54.9582      1.00000
    181     -54.9582      1.00000
    182     -54.9582      1.00000
    183     -54.9582      1.00000
    184     -54.9582      1.00000
    185     -54.9582      1.00000
    186     -54.9582      1.00000
    187     -54.9582      1.00000
    188     -54.9582      1.00000
    189     -54.9582      1.00000
    190     -54.9375      1.00000
    191     -54.9375      1.00000
    192     -54.9375      1.00000
    193      -0.6805      1.00000
    194       1.6774      1.00000
    195       1.6774      1.00000
    196       1.6774      1.00000
    197       1.6774      1.00000
    198       1.6774      1.00000
    199       1.6774      1.00000
    200       1.6774      1.00000
    201       1.6774      1.00000
    202       2.3571      1.00000
    203       2.3571      1.00000
    204       2.3571      1.00000
    205       2.3571      1.00000
    206       2.3571      1.00000
    207       2.3571      1.00000
    208       3.6431      1.00000
    209       3.6432      1.00000
    210       3.6432      1.00000
    211       3.6432      1.00000
    212       3.7713      1.00000
    213       3.7714      1.00000
    214       3.7714      1.00000
    215       4.3131      1.00000
    216       4.3131      1.00000
    217       4.3131      1.00000
    218       4.3470      1.00000
    219       4.3470      1.00000
    220       4.3470      1.00000
    221       4.3470      1.00000
    222       4.3470      1.00000
    223       4.3470      1.00000
    224       4.3470      1.00000
    225       4.3470      1.00000
    226       4.3470      1.00000
    227       4.3470      1.00000
    228       4.3470      1.00000
    229       4.3470      1.00000
    230       4.4428      1.00000
    231       4.4428      1.00000
    232       4.4428      1.00000
    233       4.4428      1.00000
    234       4.4428      1.00000
    235       4.4428      1.00000
    236       4.4428      1.00000
    237       4.4428      1.00000
    238       4.4428      1.00000
    239       4.4428      1.00000
    240       4.4428      1.00000
    241       4.4428      1.00000
    242       4.4428      1.00000
    243       4.4428      1.00000
    244       4.4428      1.00000
    245       4.4428      1.00000
    246       4.4428      1.00000
    247       4.4428      1.00000
    248       4.4428      1.00000
    249       4.4428      1.00000
    250       4.4428      1.00000
    251       4.4428      1.00000
    252       4.4428      1.00000
    253       4.4428      1.00000
    254       4.7596      1.00000
    255       4.7596      1.00000
    256       4.7596      1.00000
    257       4.7596      1.00000
    258       4.7596      1.00000
    259       4.7596      1.00000
    260       5.1429      1.00000
    261       5.1429      1.00000
    262       5.1429      1.00000
    263       5.1429      1.00000
    264       5.1429      1.00000
    265       5.1429      1.00000
    266       5.1429      1.00000
    267       5.1429      1.00000
    268       5.1429      1.00000
    269       5.1429      1.00000
    270       5.1429      1.00000
    271       5.1429      1.00000
    272       5.1429      1.00000
    273       5.1429      1.00000
    274       5.1429      1.00000
    275       5.1429      1.00000
    276       5.1429      1.00000
    277       5.1429      1.00000
    278       5.1429      1.00000
    279       5.1429      1.00000
    280       5.1429      1.00000
    281       5.1429      1.00000
    282       5.1429      1.00000
    283       5.1429      1.00000
    284       5.2783      1.00000
    285       5.2783      1.00000
    286       5.2783      1.00000
    287       5.2783      1.00000
    288       5.2783      1.00000
    289       5.2783      1.00000
    290       5.5961      1.00000
    291       5.5961      1.00000
    292       5.5961      1.00000
    293       5.5961      1.00000
    294       5.5961      1.00000
    295       5.5961      1.00000
    296       5.5961      1.00000
    297       5.5961      1.00000
    298       5.5961      1.00000
    299       5.5961      1.00000
    300       5.5961      1.00000
    301       5.5961      1.00000
    302       5.5975      1.00000
    303       5.5975      1.00000
    304       5.5975      1.00000
    305       5.5975      1.00000
    306       5.5975      1.00000
    307       5.5975      1.00000
    308       5.5975      1.00000
    309       5.5975      1.00000
    310       5.5975      1.00000
    311       5.5975      1.00000
    312       5.5975      1.00000
    313       5.5975      1.00000
    314       5.9268      1.00000
    315       5.9268      1.00000
    316       5.9268      1.00000
    317       5.9268      1.00000
    318       5.9268      1.00000
    319       5.9268      1.00000
    320       5.9268      1.00000
    321       5.9268      1.00000
    322       5.9268      1.00000
    323       5.9268      1.00000
    324       5.9268      1.00000
    325       5.9268      1.00000
    326       5.9594      1.00000
    327       5.9594      1.00000
[...]
      6.838500  3.419250  3.419250     0.011057    0.011119   -0.124013  
      8.548125  5.128875  3.419250     0.011057    0.011119   -0.124013  
      5.128875  0.000000  5.128875     0.011057    0.011119   -0.124013  
      6.838500  1.709625  5.128875     0.011057    0.011119   -0.124013  
      8.548125  3.419250  5.128875     0.011057    0.011119   -0.124013  
     10.257750  5.128875  5.128875     0.011057    0.011119   -0.124013  
      0.000000  1.709625  1.709625     0.011057    0.011119   -0.124013  
      1.709625  3.419250  1.709625     0.011057    0.011119   -0.124013  
      3.419250  5.128875  1.709625     0.011057    0.011119   -0.124013  
      5.128875  6.838500  1.709625     0.011057    0.011119   -0.124013  
      1.709625  1.709625  3.419250     0.011057    0.011119   -0.124013  
      3.419250  3.419250  3.419250     0.011057    0.011119   -0.124013  
      5.128875  5.128875  3.419250     0.011057    0.011119   -0.124013  
      6.838500  6.838500  3.419250     0.011057    0.011119   -0.124013  
      3.419250  1.709625  5.128875     0.011057    0.011119   -0.124013  
      5.128875  3.419250  5.128875     0.011057    0.011119   -0.124013  
      6.838500  5.128875  5.128875     0.011057    0.011119   -0.124013  
      8.548125  6.838500  5.128875     0.011057    0.011119   -0.124013  
      5.128875  1.709625  6.838500     0.011057    0.011119   -0.124013  
      6.838500  3.419250  6.838500     0.011057    0.011119   -0.124013  
      8.548125  5.128875  6.838500     0.011057    0.011119   -0.124013  
     10.257750  6.838500  6.838500     0.011057    0.011119   -0.124013  
      0.000000  3.419250  3.419250     0.011057    0.011119   -0.124013  
      1.709625  5.128875  3.419250     0.011057    0.011119   -0.124013  
      3.419250  6.838500  3.419250     0.011057    0.011119   -0.124013  
      5.128875  8.548125  3.419250     0.011057    0.011119   -0.124013  
      1.709625  3.419250  5.128875     0.011057    0.011119   -0.124013  
      3.419250  5.128875  5.128875     0.011057    0.011119   -0.124013  
      5.128875  6.838500  5.128875     0.011057    0.011119   -0.124013  
      6.838500  8.548125  5.128875     0.011057    0.011119   -0.124013  
      3.419250  3.419250  6.838500     0.011057    0.011119   -0.124013  
      5.128875  5.128875  6.838500     0.011057    0.011119   -0.124013  
      6.838500  6.838500  6.838500     0.011057    0.011119   -0.124013  
      8.548125  8.548125  6.838500     0.011057    0.011119   -0.124013  
      5.128875  3.419250  8.548125     0.011057    0.011119   -0.124013  
      6.838500  5.128875  8.548125     0.011057    0.011119   -0.124013  
      8.548125  6.838500  8.548125     0.011057    0.011119   -0.124013  
     10.257750  8.548125  8.548125     0.011057    0.011119   -0.124013  
      0.000000  5.128875  5.128875     0.011057    0.011119   -0.124013  
      1.709625  6.838500  5.128875     0.011057    0.011119   -0.124013  
      3.419250  8.548125  5.128875     0.011057    0.011119   -0.124013  
      5.128875 10.257750  5.128875     0.011057    0.011119   -0.124013  
      1.709625  5.128875  6.838500     0.011057    0.011119   -0.124013  
      3.419250  6.838500  6.838500     0.011057    0.011119   -0.124013  
      5.128875  8.548125  6.838500     0.011057    0.011119   -0.124013  
      6.838500 10.257750  6.838500     0.011057    0.011119   -0.124013  
      3.419250  5.128875  8.548125     0.011057    0.011119   -0.124013  
      5.128875  6.838500  8.548125     0.011057    0.011119   -0.124013  
      6.838500  8.548125  8.548125     0.011057    0.011119   -0.124013  
      8.548125 10.257750  8.548125     0.011057    0.011119   -0.124013  
      5.128875  5.128875 10.257750     0.011057    0.011119   -0.124013  
      6.838500  6.838500 10.257750     0.011057    0.011119   -0.124013  
      8.548125  8.548125 10.257750     0.011057    0.011119   -0.124013  
     10.257750 10.257750 10.257750     0.011057    0.011119   -0.124013  
 
 192 f/i=    0.000001 THz     0.000004 2PiTHz    0.000023 cm-1     0.000003 meV
             X         Y         Z           dx          dy          dz
      0.000000  0.000000  0.000000    -0.085832   -0.089510   -0.015678  
      1.709625  1.709625  0.000000    -0.085832   -0.089510   -0.015678  
      3.419250  3.419250  0.000000    -0.085832   -0.089510   -0.015678  
      5.128875  5.128875  0.000000    -0.085832   -0.089510   -0.015678  
      1.709625  0.000000  1.709625    -0.085832   -0.089510   -0.015678  
      3.419250  1.709625  1.709625    -0.085832   -0.089510   -0.015678  
      5.128875  3.419250  1.709625    -0.085832   -0.089510   -0.015678  
      6.838500  5.128875  1.709625    -0.085832   -0.089510   -0.015678  
      3.419250  0.000000  3.419250    -0.085832   -0.089510   -0.015678  
      5.128875  1.709625  3.419250    -0.085832   -0.089510   -0.015678  
      6.838500  3.419250  3.419250    -0.085832   -0.089510   -0.015678  
      8.548125  5.128875  3.419250    -0.085832   -0.089510   -0.015678  
      5.128875  0.000000  5.128875    -0.085832   -0.089510   -0.015678  
      6.838500  1.709625  5.128875    -0.085832   -0.089510   -0.015678  
      8.548125  3.419250  5.128875    -0.085832   -0.089510   -0.015678  
     10.257750  5.128875  5.128875    -0.085832   -0.089510   -0.015678  
      0.000000  1.709625  1.709625    -0.085832   -0.089510   -0.015678  
      1.709625  3.419250  1.709625    -0.085832   -0.089510   -0.015678  
      3.419250  5.128875  1.709625    -0.085832   -0.089510   -0.015678  
      5.128875  6.838500  1.709625    -0.085832   -0.089510   -0.015678  
      1.709625  1.709625  3.419250    -0.085832   -0.089510   -0.015678  
      3.419250  3.419250  3.419250    -0.085832   -0.089510   -0.015678  
      5.128875  5.128875  3.419250    -0.085832   -0.089510   -0.015678  
      6.838500  6.838500  3.419250    -0.085832   -0.089510   -0.015678  
      3.419250  1.709625  5.128875    -0.085832   -0.089510   -0.015678  
      5.128875  3.419250  5.128875    -0.085832   -0.089510   -0.015678  
      6.838500  5.128875  5.128875    -0.085832   -0.089510   -0.015678  
      8.548125  6.838500  5.128875    -0.085832   -0.089510   -0.015678  
      5.128875  1.709625  6.838500    -0.085832   -0.089510   -0.015678  
      6.838500  3.419250  6.838500    -0.085832   -0.089510   -0.015678  
      8.548125  5.128875  6.838500    -0.085832   -0.089510   -0.015678  
     10.257750  6.838500  6.838500    -0.085832   -0.089510   -0.015678  
      0.000000  3.419250  3.419250    -0.085832   -0.089510   -0.015678  
      1.709625  5.128875  3.419250    -0.085832   -0.089510   -0.015678  
      3.419250  6.838500  3.419250    -0.085832   -0.089510   -0.015678  
      5.128875  8.548125  3.419250    -0.085832   -0.089510   -0.015678  
      1.709625  3.419250  5.128875    -0.085832   -0.089510   -0.015678  
      3.419250  5.128875  5.128875    -0.085832   -0.089510   -0.015678  
      5.128875  6.838500  5.128875    -0.085832   -0.089510   -0.015678  
      6.838500  8.548125  5.128875    -0.085832   -0.089510   -0.015678  
      3.419250  3.419250  6.838500    -0.085832   -0.089510   -0.015678  
      5.128875  5.128875  6.838500    -0.085832   -0.089510   -0.015678  
      6.838500  6.838500  6.838500    -0.085832   -0.089510   -0.015678  
      8.548125  8.548125  6.838500    -0.085832   -0.089510   -0.015678  
      5.128875  3.419250  8.548125    -0.085832   -0.089510   -0.015678  
      6.838500  5.128875  8.548125    -0.085832   -0.089510   -0.015678  
      8.548125  6.838500  8.548125    -0.085832   -0.089510   -0.015678  
     10.257750  8.548125  8.548125    -0.085832   -0.089510   -0.015678  
      0.000000  5.128875  5.128875    -0.085832   -0.089510   -0.015678  
      1.709625  6.838500  5.128875    -0.085832   -0.089510   -0.015678  
      3.419250  8.548125  5.128875    -0.085832   -0.089510   -0.015678  
      5.128875 10.257750  5.128875    -0.085832   -0.089510   -0.015678  
      1.709625  5.128875  6.838500    -0.085832   -0.089510   -0.015678  
      3.419250  6.838500  6.838500    -0.085832   -0.089510   -0.015678  
      5.128875  8.548125  6.838500    -0.085832   -0.089510   -0.015678  
      6.838500 10.257750  6.838500    -0.085832   -0.089510   -0.015678  
      3.419250  5.128875  8.548125    -0.085832   -0.089510   -0.015678  
      5.128875  6.838500  8.548125    -0.085832   -0.089510   -0.015678  
      6.838500  8.548125  8.548125    -0.085832   -0.089510   -0.015678  
      8.548125 10.257750  8.548125    -0.085832   -0.089510   -0.015678  
      5.128875  5.128875 10.257750    -0.085832   -0.089510   -0.015678  
      6.838500  6.838500 10.257750    -0.085832   -0.089510   -0.015678  
      8.548125  8.548125 10.257750    -0.085832   -0.089510   -0.015678  
     10.257750 10.257750 10.257750    -0.085832   -0.089510   -0.015678  
 

 ELASTIC MODULI CONTR FROM IONIC RELAXATION (kBar)
 Direction    XX          YY          ZZ          XY          YZ          ZX
 --------------------------------------------------------------------------------
 XX           0.0000     -0.0000      0.0000      0.0000      0.0000     -0.0000
 YY          -0.0000      0.0000      0.0000      0.0000     -0.0000      0.0000
 ZZ           0.0000      0.0000      0.0000      0.0000      0.0000      0.0000
 XY           0.0000      0.0000      0.0000     -0.0000      0.0000     -0.0000
 YZ           0.0000     -0.0000      0.0000      0.0000      0.0000     -0.0000
 ZX          -0.0000      0.0000     -0.0000      0.0000     -0.0000      0.0000
 --------------------------------------------------------------------------------



--------------------------------------------------------------------------------------------------------


  LATTYP: Found a face centered cubic cell.
 ALAT       =    13.6770000000
  
  Lattice vectors:
  
 A1 = (   0.0000000000,   6.8385000000,   6.8385000000)
 A2 = (   6.8385000000,   0.0000000000,   6.8385000000)
 A3 = (   6.8385000000,   6.8385000000,   0.0000000000)


Analysis of symmetry for initial positions (statically):
=====================================================================
 Subroutine PRICEL returns following result:
 
  LATTYP: Found a face centered cubic cell.
 ALAT       =     3.4192500000
  
  Lattice vectors:
  
 A1 = (   0.0000000000,   1.7096250000,   1.7096250000)
 A2 = (   1.7096250000,   0.0000000000,   1.7096250000)
 A3 = (   1.7096250000,   1.7096250000,   0.0000000000)
 
  64 primitive cells build up your supercell.
 

 Routine SETGRP: Setting up the symmetry group for a 
 face centered cubic supercell.


 Subroutine GETGRP returns: Found 48 space group operations
 (whereof 48 operations were pure point group operations)
 out of a pool of 48 trial point group operations.


The static configuration has the point symmetry O_h .


Analysis of symmetry for dynamics (positions and initial velocities):
=====================================================================
 Subroutine PRICEL returns following result:
 
  LATTYP: Found a face centered cubic cell.
 ALAT       =     3.4192500000
  
  Lattice vectors:
  
 A1 = (   0.0000000000,   1.7096250000,   1.7096250000)
 A2 = (   1.7096250000,   0.0000000000,   1.7096250000)
 A3 = (   1.7096250000,   1.7096250000,   0.0000000000)
 
  64 primitive cells build up your supercell.
 

 Routine SETGRP: Setting up the symmetry group for a 
 face centered cubic supercell.


 Subroutine GETGRP returns: Found 48 space group operations
 (whereof 48 operations were pure point group operations)
 out of a pool of 48 trial point group operations.


The dynamic configuration has the point symmetry O_h .


Analysis of structural, dynamic, and magnetic symmetry:
=====================================================================
 Subroutine PRICEL returns following result:
 
  LATTYP: Found a face centered cubic cell.
 ALAT       =     3.4192500000
  
  Lattice vectors:
  
 A1 = (   0.0000000000,   1.7096250000,   1.7096250000)
 A2 = (   1.7096250000,   0.0000000000,   1.7096250000)
 A3 = (   1.7096250000,   1.7096250000,   0.0000000000)
 
  64 primitive cells build up your supercell.
 

 Routine SETGRP: Setting up the symmetry group for a 
 face centered cubic supercell.


 Subroutine GETGRP returns: Found 48 space group operations
 (whereof 48 operations were pure point group operations)
 out of a pool of 48 trial point group operations.


The magnetic configuration has the point symmetry O_h .


 Subroutine INISYM returns: Found 48 space group operations
 (whereof 48 operations are pure point group operations),
 and found    64 'primitive' translations

 
 KPOINTS: Zr 15x15x15                             

Automatic generation of k-mesh.
Space group operators:
 irot       det(A)        alpha          n_x          n_y          n_z        tau_x        tau_y        tau_z
    1     1.000000     0.000000     1.000000     0.000000     0.000000     0.000000     0.000000     0.000000
    2    -1.000000     0.000000     1.000000     0.000000     0.000000     0.000000     0.000000     0.000000
    3     1.000000   120.000000    -0.577350    -0.577350    -0.577350     0.000000     0.000000     0.000000
    4    -1.000000   120.000000    -0.577350    -0.577350    -0.577350     0.000000     0.000000     0.000000
    5     1.000000   120.000000     0.577350     0.577350     0.577350     0.000000     0.000000     0.000000
    6    -1.000000   120.000000     0.577350     0.577350     0.577350     0.000000     0.000000     0.000000
    7     1.000000    90.000000     0.000000     0.000000    -1.000000     0.000000     0.000000     0.000000
    8    -1.000000    90.000000     0.000000     0.000000    -1.000000     0.000000     0.000000     0.000000
    9     1.000000   180.000000     0.000000     0.707107     0.707107     0.000000     0.000000     0.000000
   10    -1.000000   180.000000     0.000000     0.707107     0.707107     0.000000     0.000000     0.000000
   11     1.000000    90.000000     0.000000     1.000000     0.000000     0.000000     0.000000     0.000000
   12    -1.000000    90.000000     0.000000     1.000000     0.000000     0.000000     0.000000     0.000000
   13     1.000000   180.000000     0.000000     0.000000     1.000000     0.000000     0.000000     0.000000
   14    -1.000000   180.000000     0.000000     0.000000     1.000000     0.000000     0.000000     0.000000
   15     1.000000   120.000000    -0.577350     0.577350     0.577350     0.000000     0.000000     0.000000
   16    -1.000000   120.000000    -0.577350     0.577350     0.577350     0.000000     0.000000     0.000000
   17     1.000000   120.000000    -0.577350     0.577350    -0.577350     0.000000     0.000000     0.000000
   18    -1.000000   120.000000    -0.577350     0.577350    -0.577350     0.000000     0.000000     0.000000
   19     1.000000    90.000000     0.000000     0.000000     1.000000     0.000000     0.000000     0.000000
   20    -1.000000    90.000000     0.000000     0.000000     1.000000     0.000000     0.000000     0.000000
   21     1.000000    90.000000    -1.000000     0.000000     0.000000     0.000000     0.000000     0.000000
   22    -1.000000    90.000000    -1.000000     0.000000     0.000000     0.000000     0.000000     0.000000
   23     1.000000   180.000000     0.707107     0.000000     0.707107     0.000000     0.000000     0.000000
   24    -1.000000   180.000000     0.707107     0.000000     0.707107     0.000000     0.000000     0.000000
   25     1.000000   120.000000     0.577350    -0.577350     0.577350     0.000000     0.000000     0.000000
   26    -1.000000   120.000000     0.577350    -0.577350     0.577350     0.000000     0.000000     0.000000
   27     1.000000   120.000000    -0.577350    -0.577350     0.577350     0.000000     0.000000     0.000000
   28    -1.000000   120.000000    -0.577350    -0.577350     0.577350     0.000000     0.000000     0.000000
   29     1.000000   180.000000     1.000000     0.000000     0.000000     0.000000     0.000000     0.000000
   30    -1.000000   180.000000     1.000000     0.000000     0.000000     0.000000     0.000000     0.000000
   31     1.000000    90.000000     0.000000    -1.000000     0.000000     0.000000     0.000000     0.000000
   32    -1.000000    90.000000     0.000000    -1.000000     0.000000     0.000000     0.000000     0.000000
   33     1.000000   180.000000     0.707107     0.707107     0.000000     0.000000     0.000000     0.000000
   34    -1.000000   180.000000     0.707107     0.707107     0.000000     0.000000     0.000000     0.000000
   35     1.000000    90.000000     1.000000     0.000000     0.000000     0.000000     0.000000     0.000000
   36    -1.000000    90.000000     1.000000     0.000000     0.000000     0.000000     0.000000     0.000000
   37     1.000000   120.000000     0.577350    -0.577350    -0.577350     0.000000     0.000000     0.000000
   38    -1.000000   120.000000     0.577350    -0.577350    -0.577350     0.000000     0.000000     0.000000
   39     1.000000   180.000000     0.000000     1.000000     0.000000     0.000000     0.000000     0.000000
   40    -1.000000   180.000000     0.000000     1.000000     0.000000     0.000000     0.000000     0.000000
   41     1.000000   120.000000     0.577350     0.577350    -0.577350     0.000000     0.000000     0.000000
   42    -1.000000   120.000000     0.577350     0.577350    -0.577350     0.000000     0.000000     0.000000
   43     1.000000   180.000000     0.000000    -0.707107     0.707107     0.000000     0.000000     0.000000
   44    -1.000000   180.000000     0.000000    -0.707107     0.707107     0.000000     0.000000     0.000000
   45     1.000000   180.000000     0.707107    -0.707107     0.000000     0.000000     0.000000     0.000000
   46    -1.000000   180.000000     0.707107    -0.707107     0.000000     0.000000     0.000000     0.000000
   47     1.000000   180.000000     0.707107     0.000000    -0.707107     0.000000     0.000000     0.000000
   48    -1.000000   180.000000     0.707107     0.000000    -0.707107     0.000000     0.000000     0.000000
 
 Subroutine IBZKPT returns following result:
 ===========================================
 
 Found      4 irreducible k-points:
 
 Following reciprocal coordinates:
            Coordinates               Weight
  0.000000  0.000000  0.000000      1.000000
  0.333333  0.000000  0.000000      8.000000
  0.333333  0.333333  0.000000      6.000000
 -0.333333  0.333333  0.000000     12.000000
 
 Following cartesian coordinates:
            Coordinates               Weight
  0.000000  0.000000  0.000000      1.000000
 -0.024372  0.024372  0.024372      8.000000
  0.000000  0.000000  0.048744      6.000000
  0.048744 -0.048744  0.000000     12.000000
 
 writing wavefunctions
     LOOP+:  cpu time 3960.6769: real time 3957.7218
    4ORBIT:  cpu time    0.0000: real time    0.0000

 total amount of memory used by VASP on root node   462876. kBytes
========================================================================

   base      :      30000. kBytes
   nonlr-proj:      41743. kBytes
   fftplans  :      13919. kBytes
   grid      :      53236. kBytes
   one-center:       1990. kBytes
   wavefun   :     321988. kBytes
 
  
  
 General timing and accounting informations for this job:
 ========================================================
  
                  Total CPU time used (sec):    11430.021
                            User time (sec):    11295.629
                          System time (sec):      134.393
                         Elapsed time (sec):    33552.478
  
                   Maximum memory used (kb):     1143704.
                   Average memory used (kb):           0.
  
                          Minor page faults:       623817
                          Major page faults:            0
                 Voluntary context switches:          925
