       N       E                     dE             d eps       ncg     rms          rms(c)
DAV:   1     0.113830068852E+03    0.11383E+03   -0.93485E+03 17152   0.130E+03
DAV:   2    -0.441528421814E+01   -0.11825E+03   -0.11051E+03 17928   0.350E+02
DAV:   3    -0.667574457480E+01   -0.22605E+01   -0.22528E+01 19920   0.550E+01
DAV:   4    -0.668797489376E+01   -0.12230E-01   -0.12224E-01 19672   0.383E+00
DAV:   5    -0.668812151753E+01   -0.14662E-03   -0.14653E-03 20272   0.391E-01    0.835E+00
DAV:   6    -0.607372327399E+01    0.61440E+00   -0.31784E+00 19984   0.453E+01    0.514E+00
DAV:   7    -0.573843662952E+01    0.33529E+00   -0.63652E-01 19520   0.188E+01    0.790E-01
DAV:   8    -0.572642262789E+01    0.12014E-01   -0.77020E-03 22560   0.955E-01    0.263E-01
DAV:   9    -0.572545069483E+01    0.97193E-03   -0.41337E-04 25408   0.298E-01    0.489E-02
DAV:  10    -0.572546626646E+01   -0.15572E-04   -0.21075E-05 18280   0.591E-02    0.166E-02
DAV:  11    -0.572547337028E+01   -0.71038E-05   -0.17653E-06 17520   0.258E-02    0.676E-03
DAV:  12    -0.572547071318E+01    0.26571E-05   -0.44826E-07 11232   0.987E-03    0.108E-03
DAV:  13    -0.572547106109E+01   -0.34791E-06   -0.50314E-08  8936   0.273E-03
   1 F= -.57254711E+01 E0= -.57254711E+01  d E =0.000000E+00  mag=     0.5966
