<?xml version="1.0" encoding="ISO-8859-1"?>
<modeling>
 <generator>
  <i name="program" type="string">vasp </i>
  <i name="version" type="string">5.4.1  </i>
  <i name="subversion" type="string">05Feb16 (build Oct 12 2016 17:31:35) complex                          parallel </i>
  <i name="platform" type="string">IFC91_ompi </i>
  <i name="date" type="string">2020 09 07 </i>
  <i name="time" type="string">22:42:49 </i>
 </generator>
 <incar>
  <i type="string" name="SYSTEM"> phonon of Zr bcc - omiga</i>
  <i type="string" name="PREC">h</i>
  <i type="int" name="ISPIN">     2</i>
  <i type="int" name="IBRION">     6</i>
  <i name="EDIFF">      0.00000100</i>
  <i type="int" name="NSW">     1</i>
  <v name="MAGMOM">      1.00000000      1.00000000      1.00000000      1.00000000      1.00000000      1.00000000      1.00000000      1.00000000      1.00000000      1.00000000      1.00000000      1.00000000      1.00000000      1.00000000      1.00000000      1.00000000      1.00000000      1.00000000      1.00000000      1.00000000
      1.00000000      1.00000000      1.00000000      1.00000000      1.00000000      1.00000000      1.00000000      1.00000000      1.00000000      1.00000000      1.00000000      1.00000000      1.00000000      1.00000000      1.00000000      1.00000000      1.00000000      1.00000000      1.00000000      1.00000000
      1.00000000      1.00000000      1.00000000      1.00000000      1.00000000      1.00000000      1.00000000      1.00000000      1.00000000      1.00000000      1.00000000      1.00000000      1.00000000      1.00000000      1.00000000      1.00000000      1.00000000      1.00000000      1.00000000      1.00000000
      1.00000000      1.00000000      1.00000000      1.00000000</v>
  <i type="string" name="LREAL">Auto</i>
  <i type="int" name="ISMEAR">     1</i>
  <i type="int" name="NWRITE">     0</i>
  <v type="int" name="KPOINT_BSE">    -1     0     0     0</v>
 </incar>
 <kpoints>
  <generation param="Gamma">
   <v type="int" name="divisions">       3        3        3 </v>
   <v name="usershift">      0.00000000       0.00000000       0.00000000 </v>
   <v name="genvec1">      0.33333333       0.00000000       0.00000000 </v>
   <v name="genvec2">      0.00000000       0.33333333       0.00000000 </v>
   <v name="genvec3">      0.00000000       0.00000000       0.33333333 </v>
   <v name="shift">      0.00000000       0.00000000       0.00000000 </v>
  </generation>
  <varray name="kpointlist" >
   <v>       0.00000000       0.00000000       0.00000000 </v>
   <v>       0.33333333       0.00000000       0.00000000 </v>
   <v>       0.33333333       0.33333333       0.00000000 </v>
   <v>      -0.33333333       0.33333333       0.00000000 </v>
  </varray>
  <varray name="weights" >
   <v>       0.03703704 </v>
   <v>       0.29629630 </v>
   <v>       0.22222222 </v>
   <v>       0.44444444 </v>
  </varray>
 </kpoints>
 <parameters>
  <separator name="general" >
   <i type="string" name="SYSTEM">phonon of Zr bcc - omiga</i>
   <i type="logical" name="LCOMPAT"> F  </i>
  </separator>
  <separator name="electronic" >
   <i type="string" name="PREC">h</i>
   <i name="ENMAX">    459.93125000</i>
   <i name="ENAUG">    703.44300000</i>
   <i name="EDIFF">      0.00000100</i>
   <i type="int" name="IALGO">    38</i>
   <i type="int" name="IWAVPR">    11</i>
   <i type="int" name="NBANDS">   648</i>
   <i name="NELECT">   1024.00000000</i>
   <i type="int" name="TURBO">     0</i>
   <i type="int" name="IRESTART">     0</i>
   <i type="int" name="NREBOOT">     0</i>
   <i type="int" name="NMIN">     0</i>
   <i name="EREF">      0.00000000</i>
   <separator name="electronic smearing" >
    <i type="int" name="ISMEAR">     1</i>
    <i name="SIGMA">      0.20000000</i>
    <i name="KSPACING">      0.50000000</i>
    <i type="logical" name="KGAMMA"> T  </i>
   </separator>
   <separator name="electronic projectors" >
    <i type="logical" name="LREAL"> T  </i>
    <v name="ROPT">     -0.00040000</v>
    <i type="int" name="LMAXPAW">  -100</i>
    <i type="int" name="LMAXMIX">     2</i>
    <i type="logical" name="NLSPLINE"> F  </i>
   </separator>
   <separator name="electronic startup" >
    <i type="int" name="ISTART">     0</i>
    <i type="int" name="ICHARG">     2</i>
    <i type="int" name="INIWAV">     1</i>
   </separator>
   <separator name="electronic spin" >
    <i type="int" name="ISPIN">     2</i>
    <i type="logical" name="LNONCOLLINEAR"> F  </i>
    <v name="MAGMOM">      1.00000000      1.00000000      1.00000000      1.00000000      1.00000000      1.00000000      1.00000000      1.00000000      1.00000000      1.00000000      1.00000000      1.00000000      1.00000000      1.00000000      1.00000000      1.00000000      1.00000000      1.00000000      1.00000000      1.00000000
      1.00000000      1.00000000      1.00000000      1.00000000      1.00000000      1.00000000      1.00000000      1.00000000      1.00000000      1.00000000      1.00000000      1.00000000      1.00000000      1.00000000      1.00000000      1.00000000      1.00000000      1.00000000      1.00000000      1.00000000
      1.00000000      1.00000000      1.00000000      1.00000000      1.00000000      1.00000000      1.00000000      1.00000000      1.00000000      1.00000000      1.00000000      1.00000000      1.00000000      1.00000000      1.00000000      1.00000000      1.00000000      1.00000000      1.00000000      1.00000000
      1.00000000      1.00000000      1.00000000      1.00000000</v>
    <i name="NUPDOWN">     -1.00000000</i>
    <i type="logical" name="LSORBIT"> F  </i>
    <v name="SAXIS">      0.00000000      0.00000000      1.00000000</v>
    <i type="logical" name="LSPIRAL"> F  </i>
    <v name="QSPIRAL">      0.00000000      0.00000000      0.00000000</v>
    <i type="logical" name="LZEROZ"> F  </i>
   </separator>
   <separator name="electronic exchange-correlation" >
    <i type="logical" name="LASPH"> F  </i>
    <i type="logical" name="LMETAGGA"> F  </i>
   </separator>
   <separator name="electronic convergence" >
    <i type="int" name="NELM">    60</i>
    <i type="int" name="NELMDL">     0</i>
    <i type="int" name="NELMIN">     2</i>
    <i name="ENINI">    459.93125000</i>
    <separator name="electronic convergence detail" >
     <i type="logical" name="LDIAG"> T  </i>
     <i type="logical" name="LSUBROT"> F  </i>
     <i name="WEIMIN">      0.00100000</i>
     <i name="EBREAK">      0.00000000</i>
     <i name="DEPER">      0.30000000</i>
     <i type="int" name="NRMM">     4</i>
     <i name="TIME">      0.40000000</i>
    </separator>
   </separator>
   <separator name="electronic mixer" >
    <i name="AMIX">      0.40000000</i>
    <i name="BMIX">      1.00000000</i>
    <i name="AMIN">      0.10000000</i>
    <i name="AMIX_MAG">      1.60000000</i>
    <i name="BMIX_MAG">      1.00000000</i>
    <separator name="electronic mixer details" >
     <i type="int" name="IMIX">     4</i>
     <i type="logical" name="MIXFIRST"> F  </i>
     <i type="int" name="MAXMIX">   -45</i>
     <i name="WC">    100.00000000</i>
     <i type="int" name="INIMIX">     1</i>
     <i type="int" name="MIXPRE">     1</i>
     <i type="int" name="MREMOVE">     5</i>
    </separator>
   </separator>
   <separator name="electronic dipolcorrection" >
    <i type="logical" name="LDIPOL"> F  </i>
    <i type="logical" name="LMONO"> F  </i>
    <i type="int" name="IDIPOL">     0</i>
    <i name="EPSILON">      1.00000000</i>
    <v name="DIPOL">   -100.00000000   -100.00000000   -100.00000000</v>
    <i name="EFIELD">      0.00000000</i>
   </separator>
  </separator>
  <separator name="grids" >
   <i type="int" name="NGX">    70</i>
   <i type="int" name="NGY">    70</i>
   <i type="int" name="NGZ">    70</i>
   <i type="int" name="NGXF">   112</i>
   <i type="int" name="NGYF">   112</i>
   <i type="int" name="NGZF">   112</i>
   <i type="logical" name="ADDGRID"> F  </i>
  </separator>
  <separator name="ionic" >
   <i type="int" name="NSW">   805</i>
   <i type="int" name="IBRION">     6</i>
   <i type="int" name="ISIF">     2</i>
   <i name="PSTRESS">      0.00000000</i>
   <i name="EDIFFG">      0.00001000</i>
   <i type="int" name="NFREE">     2</i>
   <i name="POTIM">      0.50000000</i>
   <i name="SMASS">     -3.00000000</i>
   <i name="SCALEE">      1.00000000</i>
  </separator>
  <separator name="ionic md" >
   <i name="TEBEG">      0.00010000</i>
   <i name="TEEND">      0.00010000</i>
   <i type="int" name="NBLOCK">     1</i>
   <i type="int" name="KBLOCK">     1</i>
   <i type="int" name="NPACO">   256</i>
   <i name="APACO">     16.00000000</i>
  </separator>
  <separator name="symmetry" >
   <i type="int" name="ISYM">     2</i>
   <i name="SYMPREC">      0.00001000</i>
  </separator>
  <separator name="dos" >
   <i type="logical" name="LORBIT"> F  </i>
   <v name="RWIGS">     -1.00000000</v>
   <i type="int" name="NEDOS">   301</i>
   <i name="EMIN">     10.00000000</i>
   <i name="EMAX">    -10.00000000</i>
   <i name="EFERMI">      0.00000000</i>
  </separator>
  <separator name="writing" >
   <i type="int" name="NWRITE">     0</i>
   <i type="logical" name="LWAVE"> T  </i>
   <i type="logical" name="LCHARG"> T  </i>
   <i type="logical" name="LPARD"> F  </i>
   <i type="logical" name="LVTOT"> F  </i>
   <i type="logical" name="LVHAR"> F  </i>
   <i type="logical" name="LELF"> F  </i>
   <i type="logical" name="LOPTICS"> F  </i>
   <v name="STM">      0.00000000      0.00000000      0.00000000      0.00000000      0.00000000      0.00000000      0.00000000</v>
  </separator>
  <separator name="performance" >
   <i type="int" name="NPAR">     4</i>
   <i type="int" name="NSIM">     4</i>
   <i type="int" name="NBLK">    -1</i>
   <i type="logical" name="LPLANE"> T  </i>
   <i type="logical" name="LSCALAPACK"> T  </i>
   <i type="logical" name="LSCAAWARE"> F  </i>
   <i type="logical" name="LSCALU"> F  </i>
   <i type="logical" name="LASYNC"> F  </i>
   <i type="logical" name="LORBITALREAL"> F  </i>
  </separator>
  <separator name="miscellaneous" >
   <i type="int" name="IDIOT">     3</i>
   <i type="logical" name="LMUSIC"> F  </i>
   <v name="POMASS">     58.69000000</v>
   <v name="DARWINR">      0.00000000</v>
   <v name="DARWINV">      1.00000000</v>
   <i type="logical" name="LCORR"> T  </i>
  </separator>
  <i type="logical" name="GGA_COMPAT"> T  </i>
  <i type="logical" name="LBERRY"> F  </i>
  <i type="int" name="ICORELEVEL">     0</i>
  <i type="logical" name="LDAU"> F  </i>
  <i type="int" name="I_CONSTRAINED_M">     0</i>
  <separator name="electronic exchange-correlation" >
   <i type="string" name="GGA">--</i>
   <i type="int" name="VOSKOWN">     0</i>
   <i type="logical" name="LHFCALC"> F  </i>
   <i type="string" name="PRECFOCK"></i>
   <i type="logical" name="LSYMGRAD"> F  </i>
   <i type="logical" name="LHFONE"> F  </i>
   <i type="logical" name="LRHFCALC"> F  </i>
   <i type="logical" name="LTHOMAS"> F  </i>
   <i type="logical" name="LMODELHF"> F  </i>
   <i name="ENCUT4O">     -1.00000000</i>
   <i type="int" name="EXXOEP">     0</i>
   <i type="int" name="FOURORBIT">     0</i>
   <i name="AEXX">      0.00000000</i>
   <i name="HFALPHA">      0.00000000</i>
   <i name="MCALPHA">      0.00000000</i>
   <i name="ALDAX">      1.00000000</i>
   <i name="AGGAX">      1.00000000</i>
   <i name="ALDAC">      1.00000000</i>
   <i name="AGGAC">      1.00000000</i>
   <i type="int" name="NKREDX">     1</i>
   <i type="int" name="NKREDY">     1</i>
   <i type="int" name="NKREDZ">     1</i>
   <i type="logical" name="SHIFTRED"> F  </i>
   <i type="logical" name="ODDONLY"> F  </i>
   <i type="logical" name="EVENONLY"> F  </i>
   <i type="int" name="LMAXFOCK">     0</i>
   <i type="int" name="NMAXFOCKAE">     0</i>
   <i type="logical" name="LFOCKAEDFT"> F  </i>
   <i name="HFSCREEN">      0.00000000</i>
   <i name="HFSCREENC">      0.00000000</i>
   <i type="int" name="NBANDSGWLOW">     0</i>
  </separator>
  <separator name="vdW DFT" >
   <i type="logical" name="LUSE_VDW"> F  </i>
   <i name="Zab_VDW">     -0.84910000</i>
   <i name="PARAM1">      0.12340000</i>
   <i name="PARAM2">      1.00000000</i>
   <i name="PARAM3">      0.00000000</i>
  </separator>
  <separator name="model GW" >
   <i type="int" name="MODEL_GW">     0</i>
   <i name="MODEL_EPS0">      5.99630653</i>
   <i name="MODEL_ALPHA">      1.00000000</i>
  </separator>
  <separator name="linear response parameters" >
   <i type="logical" name="LEPSILON"> F  </i>
   <i type="logical" name="LRPA"> F  </i>
   <i type="logical" name="LNABLA"> F  </i>
   <i type="logical" name="LVEL"> F  </i>
   <i type="int" name="KINTER">     0</i>
   <i name="CSHIFT">      0.10000000</i>
   <i name="OMEGAMAX">     -1.00000000</i>
   <i name="DEG_THRESHOLD">      0.00200000</i>
  </separator>
  <separator name="orbital magnetization" >
   <i type="logical" name="NUCIND"> F  </i>
   <v name="MAGPOS">      0.00000000      0.00000000      0.00000000</v>
   <i type="logical" name="LNICSALL"> T  </i>
   <i type="logical" name="ORBITALMAG"> F  </i>
   <i type="logical" name="LMAGBLOCH"> F  </i>
   <i type="logical" name="LCHIMAG"> F  </i>
   <i type="logical" name="LGAUGE"> T  </i>
   <i type="int" name="MAGATOM">     0</i>
   <v name="MAGDIPOL">      0.00000000      0.00000000      0.00000000</v>
   <v name="AVECCONST">      0.00000000      0.00000000      0.00000000</v>
  </separator>
  <separator name="response functions" >
   <i type="logical" name="LADDER"> F  </i>
   <i type="logical" name="LFXC"> F  </i>
   <i type="logical" name="LHARTREE"> T  </i>
   <i type="int" name="IBSE">     0</i>
   <v type="int" name="KPOINT">    -1     0     0     0</v>
   <i type="logical" name="LTCTE"> F  </i>
   <i type="logical" name="LTETE"> F  </i>
   <i type="logical" name="LTRIPLET"> F  </i>
   <i type="logical" name="LFXCEPS"> F  </i>
   <i type="logical" name="LFXHEG"> F  </i>
   <i type="int" name="NATURALO">     0</i>
   <i type="logical" name="L2ORDER"> F  </i>
   <i type="logical" name="LUSEW"> F  </i>
   <i name="ENCUTGW">     -2.00000000</i>
   <i name="ENCUTGWSOFT">     -2.00000000</i>
   <i name="ENCUTLF">     -1.00000000</i>
   <i type="int" name="LMAXMP2">    -1</i>
   <i name="SCISSOR">      0.00000000</i>
   <i type="int" name="NOMEGA">     0</i>
   <i type="int" name="NOMEGAR">     0</i>
   <i type="int" name="NBANDSGW">    -1</i>
   <i type="int" name="NBANDSO">    -1</i>
   <i type="int" name="NBANDSV">    -1</i>
   <i type="int" name="NELM">     1</i>
   <i type="int" name="NELMHF">     1</i>
   <i type="int" name="DIM">     3</i>
   <i type="int" name="ANTIRES">     0</i>
   <i name="OMEGAMAX">    -30.00000000</i>
   <i name="OMEGAMIN">    -30.00000000</i>
   <i name="OMEGATL">   -200.00000000</i>
   <i type="int" name="OMEGAGRID">     0</i>
   <i name="CSHIFT">     -0.10000000</i>
   <i type="logical" name="SELFENERGY"> F  </i>
   <i type="logical" name="LSPECTRAL"> F  </i>
   <i type="logical" name="LSPECTRALGW"> F  </i>
   <i type="logical" name="LSINGLES"> F  </i>
   <i type="logical" name="LFERMIGW"> F  </i>
   <i type="logical" name="ODDONLYGW"> F  </i>
   <i type="logical" name="EVENONLYGW"> F  </i>
   <i type="int" name="NKREDLFX">     1</i>
   <i type="int" name="NKREDLFY">     1</i>
   <i type="int" name="NKREDLFZ">     1</i>
   <i type="int" name="MAXMEM">  1800</i>
   <i type="int" name="TELESCOPE">     0</i>
   <i type="int" name="TAUPAR">     1</i>
   <i type="int" name="OMEGAPAR">    -1</i>
   <i name="LAMBDA">      1.00000000</i>
  </separator>
  <separator name="External order field" >
   <i name="OFIELD_KAPPA">      0.00000000</i>
   <v name="OFIELD_K">      0.00000000      0.00000000      0.00000000</v>
   <i name="OFIELD_Q6_NEAR">      0.00000000</i>
   <i name="OFIELD_Q6_FAR">      0.00000000</i>
   <i name="OFIELD_A">      0.00000000</i>
  </separator>
 </parameters>
 <atominfo>
  <atoms>      64 </atoms>
  <types>       1 </types>
  <array name="atoms" >
   <dimension dim="1">ion</dimension>
   <field type="string">element</field>
   <field type="int">atomtype</field>
   <set>
    <rc><c>Ni</c><c>   1</c></rc>
    <rc><c>Ni</c><c>   1</c></rc>
    <rc><c>Ni</c><c>   1</c></rc>
    <rc><c>Ni</c><c>   1</c></rc>
    <rc><c>Ni</c><c>   1</c></rc>
    <rc><c>Ni</c><c>   1</c></rc>
    <rc><c>Ni</c><c>   1</c></rc>
    <rc><c>Ni</c><c>   1</c></rc>
    <rc><c>Ni</c><c>   1</c></rc>
    <rc><c>Ni</c><c>   1</c></rc>
    <rc><c>Ni</c><c>   1</c></rc>
    <rc><c>Ni</c><c>   1</c></rc>
    <rc><c>Ni</c><c>   1</c></rc>
    <rc><c>Ni</c><c>   1</c></rc>
    <rc><c>Ni</c><c>   1</c></rc>
    <rc><c>Ni</c><c>   1</c></rc>
    <rc><c>Ni</c><c>   1</c></rc>
    <rc><c>Ni</c><c>   1</c></rc>
    <rc><c>Ni</c><c>   1</c></rc>
    <rc><c>Ni</c><c>   1</c></rc>
    <rc><c>Ni</c><c>   1</c></rc>
    <rc><c>Ni</c><c>   1</c></rc>
    <rc><c>Ni</c><c>   1</c></rc>
    <rc><c>Ni</c><c>   1</c></rc>
    <rc><c>Ni</c><c>   1</c></rc>
    <rc><c>Ni</c><c>   1</c></rc>
    <rc><c>Ni</c><c>   1</c></rc>
    <rc><c>Ni</c><c>   1</c></rc>
    <rc><c>Ni</c><c>   1</c></rc>
    <rc><c>Ni</c><c>   1</c></rc>
    <rc><c>Ni</c><c>   1</c></rc>
    <rc><c>Ni</c><c>   1</c></rc>
    <rc><c>Ni</c><c>   1</c></rc>
    <rc><c>Ni</c><c>   1</c></rc>
    <rc><c>Ni</c><c>   1</c></rc>
    <rc><c>Ni</c><c>   1</c></rc>
    <rc><c>Ni</c><c>   1</c></rc>
    <rc><c>Ni</c><c>   1</c></rc>
    <rc><c>Ni</c><c>   1</c></rc>
    <rc><c>Ni</c><c>   1</c></rc>
    <rc><c>Ni</c><c>   1</c></rc>
    <rc><c>Ni</c><c>   1</c></rc>
    <rc><c>Ni</c><c>   1</c></rc>
    <rc><c>Ni</c><c>   1</c></rc>
    <rc><c>Ni</c><c>   1</c></rc>
    <rc><c>Ni</c><c>   1</c></rc>
    <rc><c>Ni</c><c>   1</c></rc>
    <rc><c>Ni</c><c>   1</c></rc>
    <rc><c>Ni</c><c>   1</c></rc>
    <rc><c>Ni</c><c>   1</c></rc>
    <rc><c>Ni</c><c>   1</c></rc>
    <rc><c>Ni</c><c>   1</c></rc>
    <rc><c>Ni</c><c>   1</c></rc>
    <rc><c>Ni</c><c>   1</c></rc>
    <rc><c>Ni</c><c>   1</c></rc>
    <rc><c>Ni</c><c>   1</c></rc>
    <rc><c>Ni</c><c>   1</c></rc>
    <rc><c>Ni</c><c>   1</c></rc>
    <rc><c>Ni</c><c>   1</c></rc>
    <rc><c>Ni</c><c>   1</c></rc>
    <rc><c>Ni</c><c>   1</c></rc>
    <rc><c>Ni</c><c>   1</c></rc>
    <rc><c>Ni</c><c>   1</c></rc>
    <rc><c>Ni</c><c>   1</c></rc>
   </set>
  </array>
  <array name="atomtypes" >
   <dimension dim="1">type</dimension>
   <field type="int">atomspertype</field>
   <field type="string">element</field>
   <field>mass</field>
   <field>valence</field>
   <field type="string">pseudopotential</field>
   <set>
    <rc><c>  64</c><c>Ni</c><c>     58.69000000</c><c>     16.00000000</c><c> PAW_PBE Ni_pv 06Sep2000                </c></rc>
   </set>
  </array>
 </atominfo>
 <structure name="initialpos" >
  <crystal>
   <varray name="basis" >
    <v>       0.00000000       6.83850000       6.83850000 </v>
    <v>       6.83850000       0.00000000       6.83850000 </v>
    <v>       6.83850000       6.83850000       0.00000000 </v>
   </varray>
   <i name="volume">    639.60602993 </i>
   <varray name="rec_basis" >
    <v>      -0.07311545       0.07311545       0.07311545 </v>
    <v>       0.07311545      -0.07311545       0.07311545 </v>
    <v>       0.07311545       0.07311545      -0.07311545 </v>
   </varray>
  </crystal>
  <varray name="positions" >
   <v>       0.00000000       0.00000000       0.00000000 </v>
   <v>       0.00000000       0.00000000       0.25000000 </v>
   <v>       0.00000000       0.00000000       0.50000000 </v>
   <v>       0.00000000       0.00000000       0.75000000 </v>
   <v>       0.00000000       0.25000000       0.00000000 </v>
   <v>       0.00000000       0.25000000       0.25000000 </v>
   <v>       0.00000000       0.25000000       0.50000000 </v>
   <v>       0.00000000       0.25000000       0.75000000 </v>
   <v>       0.00000000       0.50000000       0.00000000 </v>
   <v>       0.00000000       0.50000000       0.25000000 </v>
   <v>       0.00000000       0.50000000       0.50000000 </v>
   <v>       0.00000000       0.50000000       0.75000000 </v>
   <v>       0.00000000       0.75000000       0.00000000 </v>
   <v>       0.00000000       0.75000000       0.25000000 </v>
   <v>       0.00000000       0.75000000       0.50000000 </v>
   <v>       0.00000000       0.75000000       0.75000000 </v>
   <v>       0.25000000       0.00000000       0.00000000 </v>
   <v>       0.25000000       0.00000000       0.25000000 </v>
   <v>       0.25000000       0.00000000       0.50000000 </v>
   <v>       0.25000000       0.00000000       0.75000000 </v>
   <v>       0.25000000       0.25000000       0.00000000 </v>
   <v>       0.25000000       0.25000000       0.25000000 </v>
   <v>       0.25000000       0.25000000       0.50000000 </v>
   <v>       0.25000000       0.25000000       0.75000000 </v>
   <v>       0.25000000       0.50000000       0.00000000 </v>
   <v>       0.25000000       0.50000000       0.25000000 </v>
   <v>       0.25000000       0.50000000       0.50000000 </v>
   <v>       0.25000000       0.50000000       0.75000000 </v>
   <v>       0.25000000       0.75000000       0.00000000 </v>
   <v>       0.25000000       0.75000000       0.25000000 </v>
   <v>       0.25000000       0.75000000       0.50000000 </v>
   <v>       0.25000000       0.75000000       0.75000000 </v>
   <v>       0.50000000       0.00000000       0.00000000 </v>
   <v>       0.50000000       0.00000000       0.25000000 </v>
   <v>       0.50000000       0.00000000       0.50000000 </v>
   <v>       0.50000000       0.00000000       0.75000000 </v>
   <v>       0.50000000       0.25000000       0.00000000 </v>
   <v>       0.50000000       0.25000000       0.25000000 </v>
   <v>       0.50000000       0.25000000       0.50000000 </v>
   <v>       0.50000000       0.25000000       0.75000000 </v>
   <v>       0.50000000       0.50000000       0.00000000 </v>
   <v>       0.50000000       0.50000000       0.25000000 </v>
   <v>       0.50000000       0.50000000       0.50000000 </v>
   <v>       0.50000000       0.50000000       0.75000000 </v>
   <v>       0.50000000       0.75000000       0.00000000 </v>
   <v>       0.50000000       0.75000000       0.25000000 </v>
   <v>       0.50000000       0.75000000       0.50000000 </v>
   <v>       0.50000000       0.75000000       0.75000000 </v>
   <v>       0.75000000       0.00000000       0.00000000 </v>
   <v>       0.75000000       0.00000000       0.25000000 </v>
   <v>       0.75000000       0.00000000       0.50000000 </v>
   <v>       0.75000000       0.00000000       0.75000000 </v>
   <v>       0.75000000       0.25000000       0.00000000 </v>
   <v>       0.75000000       0.25000000       0.25000000 </v>
   <v>       0.75000000       0.25000000       0.50000000 </v>
   <v>       0.75000000       0.25000000       0.75000000 </v>
   <v>       0.75000000       0.50000000       0.00000000 </v>
   <v>       0.75000000       0.50000000       0.25000000 </v>
   <v>       0.75000000       0.50000000       0.50000000 </v>
   <v>       0.75000000       0.50000000       0.75000000 </v>
   <v>       0.75000000       0.75000000       0.00000000 </v>
   <v>       0.75000000       0.75000000       0.25000000 </v>
   <v>       0.75000000       0.75000000       0.50000000 </v>
   <v>       0.75000000       0.75000000       0.75000000 </v>
  </varray>
 </structure>
 <calculation>
  <scstep>
   <time name="dav">  166.60  166.47</time>
   <time name="total">  167.13  167.00</time>
   <energy>
    <i name="alphaZ">  10788.19976491 </i>
    <i name="ewald">-158176.33604469 </i>
    <i name="hartreedc"> -59049.51858345 </i>
    <i name="XCdc">   5740.19685534 </i>
    <i name="pawpsdc"> 172361.15642774 </i>
    <i name="pawaedc">-181272.45834873 </i>
    <i name="eentropy">     -0.01144910 </i>
    <i name="bandstr">   1885.81766540 </i>
    <i name="atom"> 224016.65216645 </i>
    <i name="e_fr_energy">  16293.69845388 </i>
    <i name="e_wo_entrp">  16293.70990298 </i>
    <i name="e_0_energy">  16293.70227024 </i>
   </energy>
  </scstep>
  <scstep>
   <time name="dav">  153.22  153.10</time>
   <time name="total">  153.23  153.10</time>
   <energy>
    <i name="e_fr_energy">   1250.28307997 </i>
    <i name="e_wo_entrp">   1250.28640239 </i>
    <i name="e_0_energy">   1250.28418744 </i>
   </energy>
  </scstep>
  <scstep>
   <time name="dav">  154.22  154.09</time>
   <time name="total">  154.23  154.10</time>
   <energy>
    <i name="e_fr_energy">   -336.30150551 </i>
    <i name="e_wo_entrp">   -336.33085252 </i>
    <i name="e_0_energy">   -336.31128785 </i>
   </energy>
  </scstep>
  <scstep>
   <time name="dav">  160.84  160.71</time>
   <time name="total">  160.84  160.71</time>
   <energy>
    <i name="e_fr_energy">   -427.02512627 </i>
    <i name="e_wo_entrp">   -427.12267189 </i>
    <i name="e_0_energy">   -427.05764147 </i>
   </energy>
  </scstep>
  <scstep>
   <time name="dav">  160.38  160.25</time>
   <time name="total">  169.74  169.60</time>
   <energy>
    <i name="e_fr_energy">   -428.52670049 </i>
    <i name="e_wo_entrp">   -428.62521891 </i>
    <i name="e_0_energy">   -428.55953997 </i>
   </energy>
  </scstep>
  <scstep>
   <time name="dav">  158.62  158.50</time>
   <time name="total">  168.29  168.15</time>
   <energy>
    <i name="e_fr_energy">   -387.23758762 </i>
    <i name="e_wo_entrp">   -386.94807319 </i>
    <i name="e_0_energy">   -387.14108281 </i>
   </energy>
  </scstep>
  <scstep>
   <time name="dav">  158.55  158.42</time>
   <time name="total">  168.24  168.10</time>
   <energy>
    <i name="e_fr_energy">   -366.58714181 </i>
    <i name="e_wo_entrp">   -366.40656463 </i>
    <i name="e_0_energy">   -366.52694942 </i>
   </energy>
  </scstep>
  <scstep>
   <time name="dav">  160.66  160.52</time>
   <time name="total">  170.50  170.36</time>
   <energy>
    <i name="e_fr_energy">   -366.42602705 </i>
    <i name="e_wo_entrp">   -366.18099277 </i>
    <i name="e_0_energy">   -366.34434895 </i>
   </energy>
  </scstep>
  <scstep>
   <time name="dav">  181.61  181.46</time>
   <time name="total">  191.30  191.14</time>
   <energy>
    <i name="e_fr_energy">   -366.34303201 </i>
    <i name="e_wo_entrp">   -366.07344239 </i>
    <i name="e_0_energy">   -366.25316880 </i>
   </energy>
  </scstep>
  <scstep>
   <time name="dav">  163.11  162.98</time>
   <time name="total">  172.74  172.60</time>
   <energy>
    <i name="e_fr_energy">   -366.34634751 </i>
    <i name="e_wo_entrp">   -366.07582907 </i>
    <i name="e_0_energy">   -366.25617470 </i>
   </energy>
  </scstep>
  <scstep>
   <time name="dav">  162.24  162.11</time>
   <time name="total">  171.88  171.74</time>
   <energy>
    <i name="e_fr_energy">   -366.34720952 </i>
    <i name="e_wo_entrp">   -366.07603621 </i>
    <i name="e_0_energy">   -366.25681842 </i>
   </energy>
  </scstep>
  <scstep>
   <time name="dav">  284.4122413.58</time>
   <time name="total">  301.1522430.32</time>
   <energy>
    <i name="e_fr_energy">   -366.34733328 </i>
    <i name="e_wo_entrp">   -366.07532281 </i>
    <i name="e_0_energy">   -366.25666312 </i>
   </energy>
  </scstep>
  <scstep>
   <time name="dav">  273.81  273.58</time>
   <time name="total">  291.12  290.88</time>
   <energy>
    <i name="e_fr_energy">   -366.34733383 </i>
    <i name="e_wo_entrp">   -366.07505209 </i>
    <i name="e_0_energy">   -366.25657325 </i>
   </energy>
  </scstep>
  <scstep>
   <time name="dav">  266.75  266.53</time>
   <time name="total">  283.98  283.75</time>
   <energy>
    <i name="e_fr_energy">   -366.34730138 </i>
    <i name="e_wo_entrp">   -366.07502830 </i>
    <i name="e_0_energy">   -366.25654368 </i>
   </energy>
  </scstep>
  <scstep>
   <time name="dav">  181.60  181.45</time>
   <time name="total">  198.87  198.71</time>
   <energy>
    <i name="e_fr_energy">   -366.34729816 </i>
    <i name="e_wo_entrp">   -366.07502968 </i>
    <i name="e_0_energy">   -366.25654200 </i>
   </energy>
  </scstep>
  <scstep>
   <time name="dav">  178.64  178.49</time>
   <time name="total">  179.65  179.52</time>
   <energy>
    <i name="alphaZ">  10788.19976491 </i>
    <i name="ewald">-158176.33604469 </i>
    <i name="hartreedc"> -56681.58798861 </i>
    <i name="XCdc">   5647.70422327 </i>
    <i name="pawpsdc"> 173326.43864455 </i>
    <i name="pawaedc">-182408.49485254 </i>
    <i name="eentropy">     -0.27226264 </i>
    <i name="bandstr"> -16878.65094922 </i>
    <i name="atom"> 224016.65216645 </i>
    <i name="e_fr_energy">   -366.34729853 </i>
    <i name="e_wo_entrp">   -366.07503589 </i>
    <i name="e_0_energy">   -366.25654432 </i>
   </energy>
  </scstep>
  <structure>
   <crystal>
    <varray name="basis" >
     <v>       0.00000000       6.83850000       6.83850000 </v>
     <v>       6.83850000       0.00000000       6.83850000 </v>
     <v>       6.83850000       6.83850000       0.00000000 </v>
    </varray>
    <i name="volume">    639.60602993 </i>
    <varray name="rec_basis" >
     <v>      -0.07311545       0.07311545       0.07311545 </v>
     <v>       0.07311545      -0.07311545       0.07311545 </v>
     <v>       0.07311545       0.07311545      -0.07311545 </v>
    </varray>
   </crystal>
   <varray name="positions" >
    <v>       0.00000000       0.00000000       0.00000000 </v>
    <v>       0.00000000       0.00000000       0.25000000 </v>
    <v>       0.00000000       0.00000000       0.50000000 </v>
    <v>       0.00000000       0.00000000       0.75000000 </v>
    <v>       0.00000000       0.25000000       0.00000000 </v>
    <v>       0.00000000       0.25000000       0.25000000 </v>
    <v>       0.00000000       0.25000000       0.50000000 </v>
    <v>       0.00000000       0.25000000       0.75000000 </v>
    <v>       0.00000000       0.50000000       0.00000000 </v>
    <v>       0.00000000       0.50000000       0.25000000 </v>
    <v>       0.00000000       0.50000000       0.50000000 </v>
    <v>       0.00000000       0.50000000       0.75000000 </v>
    <v>       0.00000000       0.75000000       0.00000000 </v>
    <v>       0.00000000       0.75000000       0.25000000 </v>
    <v>       0.00000000       0.75000000       0.50000000 </v>
    <v>       0.00000000       0.75000000       0.75000000 </v>
    <v>       0.25000000       0.00000000       0.00000000 </v>
    <v>       0.25000000       0.00000000       0.25000000 </v>
    <v>       0.25000000       0.00000000       0.50000000 </v>
    <v>       0.25000000       0.00000000       0.75000000 </v>
    <v>       0.25000000       0.25000000       0.00000000 </v>
    <v>       0.25000000       0.25000000       0.25000000 </v>
    <v>       0.25000000       0.25000000       0.50000000 </v>
    <v>       0.25000000       0.25000000       0.75000000 </v>
    <v>       0.25000000       0.50000000       0.00000000 </v>
    <v>       0.25000000       0.50000000       0.25000000 </v>
    <v>       0.25000000       0.50000000       0.50000000 </v>
    <v>       0.25000000       0.50000000       0.75000000 </v>
    <v>       0.25000000       0.75000000       0.00000000 </v>
    <v>       0.25000000       0.75000000       0.25000000 </v>
    <v>       0.25000000       0.75000000       0.50000000 </v>
    <v>       0.25000000       0.75000000       0.75000000 </v>
    <v>       0.50000000       0.00000000       0.00000000 </v>
    <v>       0.50000000       0.00000000       0.25000000 </v>
    <v>       0.50000000       0.00000000       0.50000000 </v>
    <v>       0.50000000       0.00000000       0.75000000 </v>
    <v>       0.50000000       0.25000000       0.00000000 </v>
    <v>       0.50000000       0.25000000       0.25000000 </v>
    <v>       0.50000000       0.25000000       0.50000000 </v>
    <v>       0.50000000       0.25000000       0.75000000 </v>
    <v>       0.50000000       0.50000000       0.00000000 </v>
    <v>       0.50000000       0.50000000       0.25000000 </v>
    <v>       0.50000000       0.50000000       0.50000000 </v>
    <v>       0.50000000       0.50000000       0.75000000 </v>
    <v>       0.50000000       0.75000000       0.00000000 </v>
    <v>       0.50000000       0.75000000       0.25000000 </v>
    <v>       0.50000000       0.75000000       0.50000000 </v>
    <v>       0.50000000       0.75000000       0.75000000 </v>
    <v>       0.75000000       0.00000000       0.00000000 </v>
    <v>       0.75000000       0.00000000       0.25000000 </v>
    <v>       0.75000000       0.00000000       0.50000000 </v>
    <v>       0.75000000       0.00000000       0.75000000 </v>
    <v>       0.75000000       0.25000000       0.00000000 </v>
    <v>       0.75000000       0.25000000       0.25000000 </v>
    <v>       0.75000000       0.25000000       0.50000000 </v>
    <v>       0.75000000       0.25000000       0.75000000 </v>
    <v>       0.75000000       0.50000000       0.00000000 </v>
    <v>       0.75000000       0.50000000       0.25000000 </v>
    <v>       0.75000000       0.50000000       0.50000000 </v>
    <v>       0.75000000       0.50000000       0.75000000 </v>
    <v>       0.75000000       0.75000000       0.00000000 </v>
    <v>       0.75000000       0.75000000       0.25000000 </v>
    <v>       0.75000000       0.75000000       0.50000000 </v>
    <v>       0.75000000       0.75000000       0.75000000 </v>
   </varray>
  </structure>
  <varray name="forces" >
   <v>      -0.00000000      -0.00000000       0.00000000 </v>
   <v>      -0.00000000       0.00000000       0.00000000 </v>
   <v>       0.00000000       0.00000000       0.00000000 </v>
   <v>       0.00000000       0.00000000      -0.00000000 </v>
   <v>       0.00000000      -0.00000000      -0.00000000 </v>
   <v>      -0.00000000      -0.00000000      -0.00000000 </v>
   <v>       0.00000000       0.00000000      -0.00000000 </v>
   <v>       0.00000000       0.00000000       0.00000000 </v>
   <v>      -0.00000000      -0.00000000      -0.00000000 </v>
   <v>      -0.00000000      -0.00000000       0.00000000 </v>
   <v>       0.00000000       0.00000000       0.00000000 </v>
   <v>       0.00000000       0.00000000       0.00000000 </v>
   <v>      -0.00000000      -0.00000000       0.00000000 </v>
   <v>      -0.00000000       0.00000000       0.00000000 </v>
   <v>      -0.00000000      -0.00000000      -0.00000000 </v>
   <v>       0.00000000       0.00000000      -0.00000000 </v>
   <v>      -0.00000000      -0.00000000       0.00000000 </v>
   <v>      -0.00000000      -0.00000000       0.00000000 </v>
   <v>       0.00000000       0.00000000       0.00000000 </v>
   <v>       0.00000000       0.00000000      -0.00000000 </v>
   <v>       0.00000000      -0.00000000       0.00000000 </v>
   <v>      -0.00000000      -0.00000000      -0.00000000 </v>
   <v>       0.00000000       0.00000000      -0.00000000 </v>
   <v>       0.00000000       0.00000000       0.00000000 </v>
   <v>      -0.00000000      -0.00000000      -0.00000000 </v>
   <v>       0.00000000      -0.00000000      -0.00000000 </v>
   <v>       0.00000000       0.00000000      -0.00000000 </v>
   <v>       0.00000000       0.00000000       0.00000000 </v>
   <v>      -0.00000000      -0.00000000      -0.00000000 </v>
   <v>      -0.00000000      -0.00000000       0.00000000 </v>
   <v>      -0.00000000      -0.00000000      -0.00000000 </v>
   <v>       0.00000000       0.00000000      -0.00000000 </v>
   <v>      -0.00000000      -0.00000000       0.00000000 </v>
   <v>       0.00000000       0.00000000       0.00000000 </v>
   <v>       0.00000000       0.00000000      -0.00000000 </v>
   <v>       0.00000000       0.00000000      -0.00000000 </v>
   <v>       0.00000000      -0.00000000      -0.00000000 </v>
   <v>      -0.00000000      -0.00000000       0.00000000 </v>
   <v>      -0.00000000       0.00000000       0.00000000 </v>
   <v>       0.00000000       0.00000000       0.00000000 </v>
   <v>      -0.00000000      -0.00000000      -0.00000000 </v>
   <v>      -0.00000000      -0.00000000       0.00000000 </v>
   <v>       0.00000000       0.00000000      -0.00000000 </v>
   <v>       0.00000000       0.00000000       0.00000000 </v>
   <v>      -0.00000000      -0.00000000       0.00000000 </v>
   <v>      -0.00000000      -0.00000000       0.00000000 </v>
   <v>      -0.00000000       0.00000000      -0.00000000 </v>
   <v>       0.00000000       0.00000000      -0.00000000 </v>
   <v>      -0.00000000      -0.00000000       0.00000000 </v>
   <v>      -0.00000000      -0.00000000       0.00000000 </v>
   <v>       0.00000000      -0.00000000      -0.00000000 </v>
   <v>       0.00000000       0.00000000      -0.00000000 </v>
   <v>       0.00000000      -0.00000000      -0.00000000 </v>
   <v>       0.00000000      -0.00000000       0.00000000 </v>
   <v>      -0.00000000       0.00000000      -0.00000000 </v>
   <v>       0.00000000       0.00000000       0.00000000 </v>
   <v>      -0.00000000      -0.00000000       0.00000000 </v>
   <v>       0.00000000      -0.00000000       0.00000000 </v>
   <v>       0.00000000       0.00000000      -0.00000000 </v>
   <v>       0.00000000       0.00000000       0.00000000 </v>
   <v>      -0.00000000      -0.00000000       0.00000000 </v>
   <v>      -0.00000000      -0.00000000       0.00000000 </v>
   <v>       0.00000000       0.00000000      -0.00000000 </v>
   <v>       0.00000000       0.00000000      -0.00000000 </v>
  </varray>
  <varray name="stress" >
   <v>     206.63829709       0.00000000       0.00000000 </v>
   <v>       0.00000000     206.63829709       0.00000000 </v>
   <v>      -0.00000000       0.00000000     206.63829709 </v>
  </varray>
  <energy>
   <i name="e_fr_energy">   -366.34729853 </i>
   <i name="e_wo_entrp">   -366.25654432 </i>
   <i name="e_0_energy">     -0.27226264 </i>
  </energy>
  <kpoints>
   <generation param="Gamma">
    <v type="int" name="divisions">       3        3        3 </v>
    <v name="usershift">      0.00000000       0.00000000       0.00000000 </v>
    <v name="genvec1">      0.33333333       0.00000000       0.00000000 </v>
    <v name="genvec2">      0.00000000       0.33333333       0.00000000 </v>
    <v name="genvec3">      0.00000000       0.00000000       0.33333333 </v>
    <v name="shift">      0.00000000       0.00000000       0.00000000 </v>
   </generation>
   <varray name="kpointlist" >
    <v>       0.00000000       0.00000000       0.00000000 </v>
    <v>       0.33333333       0.00000000       0.00000000 </v>
    <v>       0.33333333       0.33333333       0.00000000 </v>
    <v>      -0.33333333       0.33333333       0.00000000 </v>
    <v>       0.00000000       0.33333333       0.33333333 </v>
    <v>      -0.33333333       0.33333333       0.33333333 </v>
   </varray>
   <varray name="weights" >
    <v>       0.03703704 </v>
    <v>       0.29629630 </v>
    <v>       0.14814815 </v>
    <v>       0.29629630 </v>
    <v>       0.07407407 </v>
    <v>       0.14814815 </v>
   </varray>
  </kpoints>
  <time name="totalsc"> 3475.0625603.20</time>
 </calculation>
 <calculation>
  <scstep>
   <time name="dav">  526.71  526.28</time>
   <time name="total">  548.76  548.31</time>
   <energy>
    <i name="alphaZ">  10788.19976491 </i>
    <i name="ewald">-158176.16494181 </i>
    <i name="hartreedc"> -56681.75474033 </i>
    <i name="XCdc">   5647.70536834 </i>
    <i name="pawpsdc"> 173326.12778917 </i>
    <i name="pawaedc">-182408.19324311 </i>
    <i name="eentropy">     -0.27219694 </i>
    <i name="bandstr"> -16878.55116760 </i>
    <i name="atom"> 224016.65216645 </i>
    <i name="e_fr_energy">   -366.25120091 </i>
    <i name="e_wo_entrp">   -365.97900397 </i>
    <i name="e_0_energy">   -366.16046860 </i>
   </energy>
  </scstep>
  <scstep>
   <time name="dav">  348.32  348.03</time>
   <time name="total">  360.19  359.89</time>
   <energy>
    <i name="e_fr_energy">   -366.34573073 </i>
    <i name="e_wo_entrp">   -366.07358295 </i>
    <i name="e_0_energy">   -366.25501481 </i>
   </energy>
  </scstep>
  <scstep>
   <time name="dav">  256.82  256.61</time>
   <time name="total">  268.15  267.93</time>
   <energy>
    <i name="e_fr_energy">   -366.34901275 </i>
    <i name="e_wo_entrp">   -366.07677453 </i>
    <i name="e_0_energy">   -366.25826668 </i>
   </energy>
  </scstep>
  <scstep>
   <time name="dav">  246.89  246.69</time>
   <time name="total">  258.28  258.06</time>
   <energy>
    <i name="e_fr_energy">   -366.34710757 </i>
    <i name="e_wo_entrp">   -366.07491491 </i>
    <i name="e_0_energy">   -366.25637668 </i>
   </energy>
  </scstep>
  <scstep>
   <time name="dav">  233.01  232.82</time>
   <time name="total">  244.36  244.16</time>
   <energy>
    <i name="e_fr_energy">   -366.34595193 </i>
    <i name="e_wo_entrp">   -366.07373349 </i>
    <i name="e_0_energy">   -366.25521245 </i>
   </energy>
  </scstep>
  <scstep>
   <time name="dav">  265.00  264.79</time>
   <time name="total">  276.35  276.12</time>
   <energy>
    <i name="e_fr_energy">   -366.34593564 </i>
    <i name="e_wo_entrp">   -366.07371770 </i>
    <i name="e_0_energy">   -366.25519633 </i>
   </energy>
  </scstep>
  <scstep>
   <time name="dav">  234.73  234.53</time>
   <time name="total">  246.47  246.27</time>
   <energy>
    <i name="e_fr_energy">   -366.34585572 </i>
    <i name="e_wo_entrp">   -366.07364418 </i>
    <i name="e_0_energy">   -366.25511854 </i>
   </energy>
  </scstep>
  <scstep>
   <time name="dav">  242.96  242.76</time>
   <time name="total">  254.74  254.53</time>
   <energy>
    <i name="e_fr_energy">   -366.34583411 </i>
    <i name="e_wo_entrp">   -366.07362527 </i>
    <i name="e_0_energy">   -366.25509783 </i>
   </energy>
  </scstep>
  <scstep>
   <time name="dav">  260.28  260.06</time>
   <time name="total">  272.02  271.80</time>
   <energy>
    <i name="e_fr_energy">   -366.34577222 </i>
    <i name="e_wo_entrp">   -366.07356635 </i>
    <i name="e_0_energy">   -366.25503693 </i>
   </energy>
  </scstep>
  <scstep>
   <time name="dav">  278.49  278.26</time>
   <time name="total">  290.30  290.06</time>
   <energy>
    <i name="e_fr_energy">   -366.34571685 </i>
    <i name="e_wo_entrp">   -366.07350829 </i>
    <i name="e_0_energy">   -366.25498066 </i>
   </energy>
  </scstep>
  <scstep>
   <time name="dav">  288.33  288.09</time>
   <time name="total">  300.11  299.86</time>
   <energy>
    <i name="e_fr_energy">   -366.34572038 </i>
    <i name="e_wo_entrp">   -366.07351298 </i>
    <i name="e_0_energy">   -366.25498458 </i>
   </energy>
  </scstep>
  <scstep>
   <time name="dav">  223.88  223.70</time>
   <time name="total">  236.41  236.22</time>
   <energy>
    <i name="e_fr_energy">   -366.34571834 </i>
    <i name="e_wo_entrp">   -366.07351083 </i>
    <i name="e_0_energy">   -366.25498250 </i>
   </energy>
  </scstep>
  <scstep>
   <time name="dav">  139.61  139.50</time>
   <time name="total">  140.10  139.98</time>
   <energy>
    <i name="alphaZ">  10788.19976491 </i>
    <i name="ewald">-158176.16494181 </i>
    <i name="hartreedc"> -56681.75104258 </i>
    <i name="XCdc">   5647.70503132 </i>
    <i name="pawpsdc"> 173326.14213665 </i>
    <i name="pawaedc">-182408.20292048 </i>
    <i name="eentropy">     -0.27220749 </i>
    <i name="bandstr"> -16878.65370541 </i>
    <i name="atom"> 224016.65216645 </i>
    <i name="e_fr_energy">   -366.34571845 </i>
    <i name="e_wo_entrp">   -366.07351096 </i>
    <i name="e_0_energy">   -366.25498262 </i>
   </energy>
  </scstep>
  <structure>
   <crystal>
    <varray name="basis" >
     <v>       0.00000000       6.83850000       6.83850000 </v>
     <v>       6.83850000       0.00000000       6.83850000 </v>
     <v>       6.83850000       6.83850000       0.00000000 </v>
    </varray>
    <i name="volume">    639.60602993 </i>
    <varray name="rec_basis" >
     <v>      -0.07311545       0.07311545       0.07311545 </v>
     <v>       0.07311545      -0.07311545       0.07311545 </v>
     <v>       0.07311545       0.07311545      -0.07311545 </v>
    </varray>
   </crystal>
   <varray name="positions" >
    <v>      -0.00109673       0.00109673       0.00109673 </v>
    <v>       0.00000000       0.00000000       0.25000000 </v>
    <v>       0.00000000       0.00000000       0.50000000 </v>
    <v>       0.00000000       0.00000000       0.75000000 </v>
    <v>       0.00000000       0.25000000       0.00000000 </v>
    <v>       0.00000000       0.25000000       0.25000000 </v>
    <v>       0.00000000       0.25000000       0.50000000 </v>
    <v>       0.00000000       0.25000000       0.75000000 </v>
    <v>       0.00000000       0.50000000       0.00000000 </v>
    <v>       0.00000000       0.50000000       0.25000000 </v>
    <v>       0.00000000       0.50000000       0.50000000 </v>
    <v>       0.00000000       0.50000000       0.75000000 </v>
    <v>       0.00000000       0.75000000       0.00000000 </v>
    <v>       0.00000000       0.75000000       0.25000000 </v>
    <v>       0.00000000       0.75000000       0.50000000 </v>
    <v>       0.00000000       0.75000000       0.75000000 </v>
    <v>       0.25000000       0.00000000       0.00000000 </v>
    <v>       0.25000000       0.00000000       0.25000000 </v>
    <v>       0.25000000       0.00000000       0.50000000 </v>
    <v>       0.25000000       0.00000000       0.75000000 </v>
    <v>       0.25000000       0.25000000       0.00000000 </v>
    <v>       0.25000000       0.25000000       0.25000000 </v>
    <v>       0.25000000       0.25000000       0.50000000 </v>
    <v>       0.25000000       0.25000000       0.75000000 </v>
    <v>       0.25000000       0.50000000       0.00000000 </v>
    <v>       0.25000000       0.50000000       0.25000000 </v>
    <v>       0.25000000       0.50000000       0.50000000 </v>
    <v>       0.25000000       0.50000000       0.75000000 </v>
    <v>       0.25000000       0.75000000       0.00000000 </v>
    <v>       0.25000000       0.75000000       0.25000000 </v>
    <v>       0.25000000       0.75000000       0.50000000 </v>
    <v>       0.25000000       0.75000000       0.75000000 </v>
    <v>       0.50000000       0.00000000       0.00000000 </v>
    <v>       0.50000000       0.00000000       0.25000000 </v>
    <v>       0.50000000       0.00000000       0.50000000 </v>
    <v>       0.50000000       0.00000000       0.75000000 </v>
    <v>       0.50000000       0.25000000       0.00000000 </v>
    <v>       0.50000000       0.25000000       0.25000000 </v>
    <v>       0.50000000       0.25000000       0.50000000 </v>
    <v>       0.50000000       0.25000000       0.75000000 </v>
    <v>       0.50000000       0.50000000       0.00000000 </v>
    <v>       0.50000000       0.50000000       0.25000000 </v>
    <v>       0.50000000       0.50000000       0.50000000 </v>
    <v>       0.50000000       0.50000000       0.75000000 </v>
    <v>       0.50000000       0.75000000       0.00000000 </v>
    <v>       0.50000000       0.75000000       0.25000000 </v>
    <v>       0.50000000       0.75000000       0.50000000 </v>
    <v>       0.50000000       0.75000000       0.75000000 </v>
    <v>       0.75000000       0.00000000       0.00000000 </v>
    <v>       0.75000000       0.00000000       0.25000000 </v>
    <v>       0.75000000       0.00000000       0.50000000 </v>
    <v>       0.75000000       0.00000000       0.75000000 </v>
    <v>       0.75000000       0.25000000       0.00000000 </v>
    <v>       0.75000000       0.25000000       0.25000000 </v>
    <v>       0.75000000       0.25000000       0.50000000 </v>
    <v>       0.75000000       0.25000000       0.75000000 </v>
    <v>       0.75000000       0.50000000       0.00000000 </v>
    <v>       0.75000000       0.50000000       0.25000000 </v>
    <v>       0.75000000       0.50000000       0.50000000 </v>
    <v>       0.75000000       0.50000000       0.75000000 </v>
    <v>       0.75000000       0.75000000       0.00000000 </v>
    <v>       0.75000000       0.75000000       0.25000000 </v>
    <v>       0.75000000       0.75000000       0.50000000 </v>
    <v>       0.75000000       0.75000000       0.75000000 </v>
   </varray>
  </structure>
  <varray name="forces" >
   <v>      -0.20510535       0.00000000       0.00000000 </v>
   <v>       0.02408011       0.02806537       0.00000000 </v>
   <v>       0.00014847      -0.00010115       0.00000000 </v>
   <v>       0.02276544       0.02636493       0.00000000 </v>
   <v>       0.02408011       0.00000000       0.02806537 </v>
   <v>       0.00164016       0.00088784       0.00088784 </v>
   <v>       0.00034342       0.00081672      -0.00032957 </v>
   <v>      -0.00150644       0.00001174      -0.00001174 </v>
   <v>       0.00014847       0.00000000      -0.00010115 </v>
   <v>       0.00034342      -0.00032957       0.00081672 </v>
   <v>       0.00010184      -0.00000000      -0.00000000 </v>
   <v>       0.00035994      -0.00030542       0.00098313 </v>
   <v>       0.02276544       0.00000000       0.02636493 </v>
   <v>      -0.00150644      -0.00001174       0.00001174 </v>
   <v>       0.00035994       0.00098313      -0.00030542 </v>
   <v>       0.00145392       0.00089810       0.00089810 </v>
   <v>      -0.00150644      -0.00001174      -0.00001174 </v>
   <v>       0.00035994       0.00098313       0.00030542 </v>
   <v>       0.00145392       0.00089810      -0.00089810 </v>
   <v>       0.02276544       0.00000000      -0.02636493 </v>
   <v>       0.00035994       0.00030542       0.00098313 </v>
   <v>       0.00040157      -0.00000000      -0.00000000 </v>
   <v>       0.00034342       0.00032957      -0.00081672 </v>
   <v>      -0.00050431       0.00000000       0.00015982 </v>
   <v>       0.00145392      -0.00089810       0.00089810 </v>
   <v>       0.00034342      -0.00081672       0.00032957 </v>
   <v>      -0.00022884       0.00006547       0.00006547 </v>
   <v>       0.00031411       0.00000000       0.00005974 </v>
   <v>       0.02276544      -0.02636493       0.00000000 </v>
   <v>      -0.00050431       0.00015982       0.00000000 </v>
   <v>       0.00031411       0.00005974       0.00000000 </v>
   <v>       0.00227143       0.00000000       0.00000000 </v>
   <v>       0.00010184       0.00000000       0.00000000 </v>
   <v>       0.00035994      -0.00030542      -0.00098313 </v>
   <v>       0.00014847       0.00000000       0.00010115 </v>
   <v>       0.00034342      -0.00032957      -0.00081672 </v>
   <v>       0.00035994      -0.00098313      -0.00030542 </v>
   <v>       0.00164016      -0.00088784      -0.00088784 </v>
   <v>       0.00038077       0.00000000       0.00005890 </v>
   <v>      -0.00022884      -0.00006547       0.00006547 </v>
   <v>       0.00014847       0.00010115       0.00000000 </v>
   <v>       0.00038077       0.00005890       0.00000000 </v>
   <v>      -0.00058214       0.00000000       0.00000000 </v>
   <v>       0.00031411      -0.00005974       0.00000000 </v>
   <v>       0.00034342      -0.00081672      -0.00032957 </v>
   <v>      -0.00022884       0.00006547      -0.00006547 </v>
   <v>       0.00031411       0.00000000      -0.00005974 </v>
   <v>       0.00145392      -0.00089810      -0.00089810 </v>
   <v>      -0.00150644       0.00001174       0.00001174 </v>
   <v>       0.02408011       0.00000000      -0.02806537 </v>
   <v>       0.00164016       0.00088784      -0.00088784 </v>
   <v>       0.00034342       0.00081672       0.00032957 </v>
   <v>       0.02408011      -0.02806537       0.00000000 </v>
   <v>       0.00260872       0.00000000       0.00000000 </v>
   <v>       0.00038077      -0.00005890       0.00000000 </v>
   <v>      -0.00050431      -0.00015982       0.00000000 </v>
   <v>       0.00164016      -0.00088784       0.00088784 </v>
   <v>       0.00038077       0.00000000      -0.00005890 </v>
   <v>      -0.00022884      -0.00006547      -0.00006547 </v>
   <v>       0.00035994      -0.00098313       0.00030542 </v>
   <v>       0.00034342       0.00032957       0.00081672 </v>
   <v>      -0.00050431       0.00000000      -0.00015982 </v>
   <v>       0.00035994       0.00030542      -0.00098313 </v>
   <v>       0.00040157       0.00000000       0.00000000 </v>
  </varray>
  <varray name="stress" >
   <v>     206.60603042       0.00000000      -0.00000000 </v>
   <v>       0.00000000     206.59957788       0.00000000 </v>
   <v>       0.00000000       0.00000000     206.59957788 </v>
  </varray>
  <energy>
   <i name="e_fr_energy">   -366.34571845 </i>
   <i name="e_wo_entrp">   -366.25498262 </i>
   <i name="e_0_energy">     -0.27220749 </i>
  </energy>
  <kpoints>
   <generation param="Gamma">
    <v type="int" name="divisions">       3        3        3 </v>
    <v name="usershift">      0.00000000       0.00000000       0.00000000 </v>
    <v name="genvec1">      0.33333333       0.00000000       0.00000000 </v>
    <v name="genvec2">      0.00000000       0.33333333       0.00000000 </v>
    <v name="genvec3">      0.00000000       0.00000000       0.33333333 </v>
    <v name="shift">      0.00000000       0.00000000       0.00000000 </v>
   </generation>
   <varray name="kpointlist" >
    <v>       0.00000000       0.00000000       0.00000000 </v>
    <v>       0.33333333       0.00000000       0.00000000 </v>
    <v>       0.33333333       0.33333333       0.00000000 </v>
    <v>      -0.33333333       0.33333333       0.00000000 </v>
    <v>       0.00000000       0.33333333       0.33333333 </v>
    <v>      -0.33333333       0.33333333       0.33333333 </v>
   </varray>
   <varray name="weights" >
    <v>       0.03703704 </v>
    <v>       0.29629630 </v>
    <v>       0.14814815 </v>
    <v>       0.29629630 </v>
    <v>       0.07407407 </v>
    <v>       0.14814815 </v>
   </varray>
  </kpoints>
  <time name="totalsc"> 3967.13 3964.35</time>
 </calculation>
 <calculation>
  <scstep>
   <time name="dav">  268.80  268.58</time>
   <time name="total">  280.73  280.50</time>
   <energy>
    <i name="alphaZ">  10788.19976491 </i>
    <i name="ewald">-158176.16494181 </i>
    <i name="hartreedc"> -56681.79496810 </i>
    <i name="XCdc">   5647.70742420 </i>
    <i name="pawpsdc"> 173326.11885851 </i>
    <i name="pawaedc">-182408.18004078 </i>
    <i name="eentropy">     -0.27220285 </i>
    <i name="bandstr"> -16878.26727506 </i>
    <i name="atom"> 224016.65216645 </i>
    <i name="e_fr_energy">   -366.00121453 </i>
    <i name="e_wo_entrp">   -365.72901168 </i>
    <i name="e_0_energy">   -365.91048025 </i>
   </energy>
  </scstep>
  <scstep>
   <time name="dav">  224.26  224.08</time>
   <time name="total">  235.98  235.79</time>
   <energy>
    <i name="e_fr_energy">   -366.35499271 </i>
    <i name="e_wo_entrp">   -366.08330924 </i>
    <i name="e_0_energy">   -366.26443156 </i>
   </energy>
  </scstep>
  <scstep>
   <time name="dav">  250.14  249.94</time>
   <time name="total">  261.48  261.27</time>
   <energy>
    <i name="e_fr_energy">   -366.35145933 </i>
    <i name="e_wo_entrp">   -366.07916713 </i>
    <i name="e_0_energy">   -366.26069526 </i>
   </energy>
  </scstep>
  <scstep>
   <time name="dav">  259.62  259.41</time>
   <time name="total">  270.60  270.38</time>
   <energy>
    <i name="e_fr_energy">   -366.35459129 </i>
    <i name="e_wo_entrp">   -366.08250789 </i>
    <i name="e_0_energy">   -366.26389682 </i>
   </energy>
  </scstep>
  <scstep>
   <time name="dav">  215.58  215.40</time>
   <time name="total">  226.18  226.00</time>
   <energy>
    <i name="e_fr_energy">   -366.34661023 </i>
    <i name="e_wo_entrp">   -366.07436483 </i>
    <i name="e_0_energy">   -366.25586176 </i>
   </energy>
  </scstep>
  <scstep>
   <time name="dav">  238.87  238.68</time>
   <time name="total">  249.49  249.28</time>
   <energy>
    <i name="e_fr_energy">   -366.34644710 </i>
    <i name="e_wo_entrp">   -366.07420190 </i>
    <i name="e_0_energy">   -366.25569870 </i>
   </energy>
  </scstep>
  <scstep>
   <time name="dav">  222.50  222.31</time>
   <time name="total">  233.12  232.93</time>
   <energy>
    <i name="e_fr_energy">   -366.34622448 </i>
    <i name="e_wo_entrp">   -366.07400242 </i>
    <i name="e_0_energy">   -366.25548379 </i>
   </energy>
  </scstep>
  <scstep>
   <time name="dav">  223.01  222.83</time>
   <time name="total">  233.64  233.45</time>
   <energy>
    <i name="e_fr_energy">   -366.34605392 </i>
    <i name="e_wo_entrp">   -366.07384701 </i>
    <i name="e_0_energy">   -366.25531828 </i>
   </energy>
  </scstep>
  <scstep>
   <time name="dav">  223.54  223.36</time>
   <time name="total">  234.16  233.97</time>
   <energy>
    <i name="e_fr_energy">   -366.34609519 </i>
    <i name="e_wo_entrp">   -366.07389708 </i>
    <i name="e_0_energy">   -366.25536249 </i>
   </energy>
  </scstep>
  <scstep>
   <time name="dav">  252.68  252.47</time>
   <time name="total">  263.29  263.07</time>
   <energy>
    <i name="e_fr_energy">   -366.34579047 </i>
    <i name="e_wo_entrp">   -366.07359704 </i>
    <i name="e_0_energy">   -366.25505933 </i>
   </energy>
  </scstep>
  <scstep>
   <time name="dav">  250.35  250.14</time>
   <time name="total">  260.96  260.75</time>
   <energy>
    <i name="e_fr_energy">   -366.34571541 </i>
    <i name="e_wo_entrp">   -366.07351753 </i>
    <i name="e_0_energy">   -366.25498278 </i>
   </energy>
  </scstep>
  <scstep>
   <time name="dav">  259.71  259.50</time>
   <time name="total">  270.26  270.04</time>
   <energy>
    <i name="e_fr_energy">   -366.34572216 </i>
    <i name="e_wo_entrp">   -366.07352317 </i>
    <i name="e_0_energy">   -366.25498917 </i>
   </energy>
  </scstep>
  <scstep>
   <time name="dav">  211.67  211.50</time>
   <time name="total">  222.26  222.07</time>
   <energy>
    <i name="e_fr_energy">   -366.34571841 </i>
    <i name="e_wo_entrp">   -366.07351807 </i>
    <i name="e_0_energy">   -366.25498496 </i>
   </energy>
  </scstep>
  <scstep>
   <time name="dav">  175.79  175.64</time>
   <time name="total">  186.54  186.39</time>
   <energy>
    <i name="e_fr_energy">   -366.34572118 </i>
    <i name="e_wo_entrp">   -366.07351808 </i>
    <i name="e_0_energy">   -366.25498681 </i>
   </energy>
  </scstep>
  <scstep>
   <time name="dav">  152.46  152.34</time>
   <time name="total">  163.04  162.91</time>
   <energy>
    <i name="e_fr_energy">   -366.34571827 </i>
    <i name="e_wo_entrp">   -366.07351214 </i>
    <i name="e_0_energy">   -366.25498289 </i>
   </energy>
  </scstep>
  <scstep>
   <time name="dav">  128.97  128.87</time>
   <time name="total">  129.46  129.35</time>
   <energy>
    <i name="alphaZ">  10788.19976491 </i>
    <i name="ewald">-158176.16494181 </i>
    <i name="hartreedc"> -56681.74689505 </i>
    <i name="XCdc">   5647.70487646 </i>
    <i name="pawpsdc"> 173326.11898415 </i>
    <i name="pawaedc">-182408.18187289 </i>
    <i name="eentropy">     -0.27220745 </i>
    <i name="bandstr"> -16878.65559330 </i>
    <i name="atom"> 224016.65216645 </i>
    <i name="e_fr_energy">   -366.34571853 </i>
    <i name="e_wo_entrp">   -366.07351108 </i>
    <i name="e_0_energy">   -366.25498272 </i>
   </energy>
  </scstep>
  <structure>
   <crystal>
    <varray name="basis" >
     <v>       0.00000000       6.83850000       6.83850000 </v>
     <v>       6.83850000       0.00000000       6.83850000 </v>
     <v>       6.83850000       6.83850000       0.00000000 </v>
    </varray>
    <i name="volume">    639.60602993 </i>
    <varray name="rec_basis" >
     <v>      -0.07311545       0.07311545       0.07311545 </v>
     <v>       0.07311545      -0.07311545       0.07311545 </v>
     <v>       0.07311545       0.07311545      -0.07311545 </v>
    </varray>
   </crystal>
   <varray name="positions" >
    <v>       0.00109673      -0.00109673      -0.00109673 </v>
    <v>       0.00000000       0.00000000       0.25000000 </v>
    <v>       0.00000000       0.00000000       0.50000000 </v>
    <v>       0.00000000       0.00000000       0.75000000 </v>
    <v>       0.00000000       0.25000000       0.00000000 </v>
    <v>       0.00000000       0.25000000       0.25000000 </v>
    <v>       0.00000000       0.25000000       0.50000000 </v>
    <v>       0.00000000       0.25000000       0.75000000 </v>
    <v>       0.00000000       0.50000000       0.00000000 </v>
    <v>       0.00000000       0.50000000       0.25000000 </v>
    <v>       0.00000000       0.50000000       0.50000000 </v>
    <v>       0.00000000       0.50000000       0.75000000 </v>
    <v>       0.00000000       0.75000000       0.00000000 </v>
    <v>       0.00000000       0.75000000       0.25000000 </v>
    <v>       0.00000000       0.75000000       0.50000000 </v>
    <v>       0.00000000       0.75000000       0.75000000 </v>
    <v>       0.25000000       0.00000000       0.00000000 </v>
    <v>       0.25000000       0.00000000       0.25000000 </v>
    <v>       0.25000000       0.00000000       0.50000000 </v>
    <v>       0.25000000       0.00000000       0.75000000 </v>
    <v>       0.25000000       0.25000000       0.00000000 </v>
    <v>       0.25000000       0.25000000       0.25000000 </v>
    <v>       0.25000000       0.25000000       0.50000000 </v>
    <v>       0.25000000       0.25000000       0.75000000 </v>
    <v>       0.25000000       0.50000000       0.00000000 </v>
    <v>       0.25000000       0.50000000       0.25000000 </v>
    <v>       0.25000000       0.50000000       0.50000000 </v>
    <v>       0.25000000       0.50000000       0.75000000 </v>
    <v>       0.25000000       0.75000000       0.00000000 </v>
    <v>       0.25000000       0.75000000       0.25000000 </v>
    <v>       0.25000000       0.75000000       0.50000000 </v>
    <v>       0.25000000       0.75000000       0.75000000 </v>
    <v>       0.50000000       0.00000000       0.00000000 </v>
    <v>       0.50000000       0.00000000       0.25000000 </v>
    <v>       0.50000000       0.00000000       0.50000000 </v>
    <v>       0.50000000       0.00000000       0.75000000 </v>
    <v>       0.50000000       0.25000000       0.00000000 </v>
    <v>       0.50000000       0.25000000       0.25000000 </v>
    <v>       0.50000000       0.25000000       0.50000000 </v>
    <v>       0.50000000       0.25000000       0.75000000 </v>
    <v>       0.50000000       0.50000000       0.00000000 </v>
    <v>       0.50000000       0.50000000       0.25000000 </v>
    <v>       0.50000000       0.50000000       0.50000000 </v>
    <v>       0.50000000       0.50000000       0.75000000 </v>
    <v>       0.50000000       0.75000000       0.00000000 </v>
    <v>       0.50000000       0.75000000       0.25000000 </v>
    <v>       0.50000000       0.75000000       0.50000000 </v>
    <v>       0.50000000       0.75000000       0.75000000 </v>
    <v>       0.75000000       0.00000000       0.00000000 </v>
    <v>       0.75000000       0.00000000       0.25000000 </v>
    <v>       0.75000000       0.00000000       0.50000000 </v>
    <v>       0.75000000       0.00000000       0.75000000 </v>
    <v>       0.75000000       0.25000000       0.00000000 </v>
    <v>       0.75000000       0.25000000       0.25000000 </v>
    <v>       0.75000000       0.25000000       0.50000000 </v>
    <v>       0.75000000       0.25000000       0.75000000 </v>
    <v>       0.75000000       0.50000000       0.00000000 </v>
    <v>       0.75000000       0.50000000       0.25000000 </v>
    <v>       0.75000000       0.50000000       0.50000000 </v>
    <v>       0.75000000       0.50000000       0.75000000 </v>
    <v>       0.75000000       0.75000000       0.00000000 </v>
    <v>       0.75000000       0.75000000       0.25000000 </v>
    <v>       0.75000000       0.75000000       0.50000000 </v>
    <v>       0.75000000       0.75000000       0.75000000 </v>
   </varray>
  </structure>
  <varray name="forces" >
   <v>       0.20304615       0.00000000      -0.00000000 </v>
   <v>      -0.02348605      -0.02733400      -0.00000000 </v>
   <v>      -0.00018566       0.00019125      -0.00000000 </v>
   <v>      -0.02433770      -0.02854493      -0.00000000 </v>
   <v>      -0.02348605       0.00000000      -0.02733400 </v>
   <v>      -0.00151317      -0.00076319      -0.00076319 </v>
   <v>      -0.00027860      -0.00078937       0.00036311 </v>
   <v>       0.00187009       0.00027210      -0.00027210 </v>
   <v>      -0.00018566       0.00000000       0.00019125 </v>
   <v>      -0.00027860       0.00036311      -0.00078937 </v>
   <v>       0.00001632       0.00000000      -0.00000000 </v>
   <v>      -0.00022109       0.00030355      -0.00082651 </v>
   <v>      -0.02433770       0.00000000      -0.02854493 </v>
   <v>       0.00187009      -0.00027210       0.00027210 </v>
   <v>      -0.00022109      -0.00082651       0.00030355 </v>
   <v>      -0.00147105      -0.00081429      -0.00081429 </v>
   <v>       0.00187009      -0.00027210      -0.00027210 </v>
   <v>      -0.00022109      -0.00082651      -0.00030355 </v>
   <v>      -0.00147105      -0.00081429       0.00081429 </v>
   <v>      -0.02433770       0.00000000       0.02854493 </v>
   <v>      -0.00022109      -0.00030355      -0.00082651 </v>
   <v>      -0.00040912       0.00000000      -0.00000000 </v>
   <v>      -0.00027860      -0.00036311       0.00078937 </v>
   <v>       0.00067448       0.00000000      -0.00006313 </v>
   <v>      -0.00147105       0.00081429      -0.00081429 </v>
   <v>      -0.00027860       0.00078937      -0.00036311 </v>
   <v>       0.00041822      -0.00003255      -0.00003255 </v>
   <v>      -0.00017705       0.00000000      -0.00000203 </v>
   <v>      -0.02433770       0.02854493      -0.00000000 </v>
   <v>       0.00067448      -0.00006313      -0.00000000 </v>
   <v>      -0.00017705      -0.00000203      -0.00000000 </v>
   <v>      -0.00250941       0.00000000      -0.00000000 </v>
   <v>       0.00001632       0.00000000      -0.00000000 </v>
   <v>      -0.00022109       0.00030355       0.00082651 </v>
   <v>      -0.00018566       0.00000000      -0.00019125 </v>
   <v>      -0.00027860       0.00036311       0.00078937 </v>
   <v>      -0.00022109       0.00082651       0.00030355 </v>
   <v>      -0.00151317       0.00076319       0.00076319 </v>
   <v>      -0.00026084       0.00000000      -0.00007748 </v>
   <v>       0.00041822       0.00003255      -0.00003255 </v>
   <v>      -0.00018566      -0.00019125      -0.00000000 </v>
   <v>      -0.00026084      -0.00007748      -0.00000000 </v>
   <v>       0.00083948       0.00000000      -0.00000000 </v>
   <v>      -0.00017705       0.00000203      -0.00000000 </v>
   <v>      -0.00027860       0.00078937       0.00036311 </v>
   <v>       0.00041822      -0.00003255       0.00003255 </v>
   <v>      -0.00017705       0.00000000       0.00000203 </v>
   <v>      -0.00147105       0.00081429       0.00081429 </v>
   <v>       0.00187009       0.00027210       0.00027210 </v>
   <v>      -0.02348605       0.00000000       0.02733400 </v>
   <v>      -0.00151317      -0.00076319       0.00076319 </v>
   <v>      -0.00027860      -0.00078937      -0.00036311 </v>
   <v>      -0.02348605       0.02733400      -0.00000000 </v>
   <v>      -0.00271816       0.00000000      -0.00000000 </v>
   <v>      -0.00026084       0.00007748      -0.00000000 </v>
   <v>       0.00067448       0.00006313      -0.00000000 </v>
   <v>      -0.00151317       0.00076319      -0.00076319 </v>
   <v>      -0.00026084       0.00000000       0.00007748 </v>
   <v>       0.00041822       0.00003255       0.00003255 </v>
   <v>      -0.00022109       0.00082651      -0.00030355 </v>
   <v>      -0.00027860      -0.00036311      -0.00078937 </v>
   <v>       0.00067448       0.00000000       0.00006313 </v>
   <v>      -0.00022109      -0.00030355       0.00082651 </v>
   <v>      -0.00040912       0.00000000      -0.00000000 </v>
  </varray>
  <varray name="stress" >
   <v>     206.60060698      -0.00000000       0.00000000 </v>
   <v>       0.00000000     206.60571656       0.00000000 </v>
   <v>       0.00000000       0.00000000     206.60571656 </v>
  </varray>
  <energy>
   <i name="e_fr_energy">   -366.34571853 </i>
   <i name="e_wo_entrp">   -366.25498272 </i>
   <i name="e_0_energy">     -0.27220745 </i>
  </energy>
  <dynmat>
   <varray name="hessian" >
    <v>      -0.23181206       0.00000000       0.00000000       0.02688400       0.03132539       0.00000000       0.00018977      -0.00016607      -0.00000000       0.02688400       0.03132539      -0.00000000       0.02688400       0.00000000       0.03132539       0.00172611       0.00096256       0.00096256       0.00034164       0.00096256      -0.00036964      -0.00191772       0.00000000      -0.00000000       0.00018977       0.00000000      -0.00016607       0.00034164      -0.00036964       0.00096256       0.00004857      -0.00000000       0.00000000       0.00034164      -0.00036964       0.00096256       0.02688400      -0.00000000       0.03132539      -0.00191772       0.00000000       0.00000000       0.00034164       0.00096256      -0.00036964       0.00172611       0.00096256       0.00096256      -0.00191772      -0.00000000      -0.00000000       0.00034164       0.00096256       0.00036964       0.00172611       0.00096256      -0.00096256       0.02688400      -0.00000000      -0.03132539       0.00034164       0.00036964       0.00096256       0.00046044      -0.00000000       0.00000000       0.00034164       0.00036964      -0.00096256      -0.00066950      -0.00000000      -0.00000000       0.00172611      -0.00096256       0.00096256       0.00034164      -0.00096256       0.00036964      -0.00036750      -0.00000000       0.00000000       0.00032168      -0.00000000      -0.00002119       0.02688400      -0.03132539       0.00000000      -0.00066950       0.00000000      -0.00000000       0.00032168      -0.00002119       0.00000000       0.00287037      -0.00000000       0.00000000       0.00004857       0.00000000      -0.00000000       0.00034164      -0.00036964      -0.00096256       0.00018977      -0.00000000       0.00016607       0.00034164      -0.00036964      -0.00096256       0.00034164      -0.00096256      -0.00036964       0.00172611      -0.00096256      -0.00096256       0.00032168      -0.00000000       0.00002119      -0.00036750      -0.00000000      -0.00000000       0.00018977       0.00016607       0.00000000       0.00032168       0.00002119       0.00000000      -0.00080742      -0.00000000      -0.00000000       0.00032168       0.00002119      -0.00000000       0.00034164      -0.00096256      -0.00036964      -0.00036750       0.00000000       0.00000000       0.00032168       0.00000000       0.00002119       0.00172611      -0.00096256      -0.00096256      -0.00191772       0.00000000       0.00000000       0.02688400       0.00000000      -0.03132539       0.00172611       0.00096256      -0.00096256       0.00034164       0.00096256       0.00036964       0.02688400      -0.03132539       0.00000000       0.00287037      -0.00000000      -0.00000000       0.00032168      -0.00002119      -0.00000000      -0.00066950       0.00000000      -0.00000000       0.00172611      -0.00096256       0.00096256       0.00032168       0.00000000      -0.00002119      -0.00036750       0.00000000      -0.00000000       0.00034164      -0.00096256       0.00036964       0.00034164       0.00036964       0.00096256      -0.00066950      -0.00000000      -0.00000000       0.00034164       0.00036964      -0.00096256       0.00046044      -0.00000000       0.00000000 </v>
    <v>       0.00000000      -0.23181206       0.00000000       0.03132539       0.02688400       0.00000000      -0.00016607       0.00018977       0.00000000       0.03132539       0.02688400      -0.00000000      -0.00000000      -0.00191772      -0.00000000       0.00096256       0.00034164       0.00036964       0.00096256       0.00172611      -0.00096256       0.00000000       0.02688400      -0.03132539       0.00000000       0.00004857      -0.00000000      -0.00036964       0.00034164      -0.00096256      -0.00000000       0.00018977       0.00016607      -0.00036964       0.00034164      -0.00096256       0.00000000      -0.00191772       0.00000000       0.00000000       0.02688400      -0.03132539       0.00096256       0.00172611      -0.00096256       0.00096256       0.00034164       0.00036964       0.00000000       0.02688400       0.03132539       0.00096256       0.00172611       0.00096256       0.00096256       0.00034164      -0.00036964       0.00000000      -0.00191772       0.00000000       0.00036964       0.00034164       0.00096256      -0.00000000       0.00046044       0.00000000       0.00036964       0.00034164      -0.00096256      -0.00000000      -0.00066950       0.00000000      -0.00096256       0.00034164      -0.00036964      -0.00096256       0.00172611      -0.00096256       0.00000000       0.00032168       0.00002119       0.00000000      -0.00036750       0.00000000      -0.03132539       0.02688400       0.00000000       0.00000000       0.00287037      -0.00000000      -0.00002119       0.00032168       0.00000000      -0.00000000      -0.00066950      -0.00000000       0.00000000       0.00018977      -0.00016607      -0.00036964       0.00034164       0.00096256      -0.00000000       0.00004857       0.00000000      -0.00036964       0.00034164       0.00096256      -0.00096256       0.00172611       0.00096256      -0.00096256       0.00034164       0.00036964       0.00000000      -0.00036750      -0.00000000       0.00000000       0.00032168      -0.00002119       0.00016607       0.00018977       0.00000000       0.00002119       0.00032168      -0.00000000      -0.00000000      -0.00080742      -0.00000000       0.00002119       0.00032168       0.00000000      -0.00096256       0.00172611       0.00096256      -0.00000000       0.00032168      -0.00002119      -0.00000000      -0.00036750       0.00000000      -0.00096256       0.00034164       0.00036964      -0.00000000       0.02688400       0.03132539      -0.00000000      -0.00191772       0.00000000       0.00096256       0.00034164      -0.00036964       0.00096256       0.00172611       0.00096256      -0.03132539       0.02688400      -0.00000000      -0.00000000      -0.00066950      -0.00000000      -0.00002119       0.00032168      -0.00000000       0.00000000       0.00287037      -0.00000000      -0.00096256       0.00034164      -0.00036964      -0.00000000      -0.00036750      -0.00000000      -0.00000000       0.00032168       0.00002119      -0.00096256       0.00172611      -0.00096256       0.00036964       0.00034164       0.00096256      -0.00000000      -0.00066950      -0.00000000       0.00036964       0.00034164      -0.00096256      -0.00000000       0.00046044       0.00000000 </v>
    <v>       0.00000000       0.00000000      -0.23181206      -0.00000000      -0.00000000      -0.00191772      -0.00000000       0.00000000       0.00004857       0.00000000       0.00000000      -0.00191772       0.03132539       0.00000000       0.02688400       0.00096256       0.00036964       0.00034164      -0.00036964      -0.00096256       0.00034164       0.00000000      -0.03132539       0.02688400      -0.00016607      -0.00000000       0.00018977       0.00096256      -0.00096256       0.00172611       0.00000000       0.00016607       0.00018977       0.00096256      -0.00096256       0.00172611       0.03132539      -0.00000000       0.02688400      -0.00000000      -0.03132539       0.02688400      -0.00036964      -0.00096256       0.00034164       0.00096256       0.00036964       0.00034164       0.00000000       0.03132539       0.02688400       0.00036964       0.00096256       0.00034164      -0.00096256      -0.00036964       0.00034164      -0.03132539       0.00000000       0.02688400       0.00096256       0.00096256       0.00172611       0.00000000       0.00000000       0.00046044      -0.00096256      -0.00096256       0.00172611      -0.00000000      -0.00000000       0.00287037       0.00096256      -0.00036964       0.00034164       0.00036964      -0.00096256       0.00034164      -0.00000000       0.00002119       0.00032168      -0.00002119      -0.00000000       0.00032168       0.00000000      -0.00000000      -0.00191772      -0.00000000      -0.00000000      -0.00066950      -0.00000000      -0.00000000      -0.00036750      -0.00000000      -0.00000000      -0.00066950      -0.00000000      -0.00016607       0.00018977      -0.00096256       0.00096256       0.00172611       0.00016607       0.00000000       0.00018977      -0.00096256       0.00096256       0.00172611      -0.00036964       0.00096256       0.00034164      -0.00096256       0.00036964       0.00034164       0.00002119       0.00000000       0.00032168       0.00000000      -0.00002119       0.00032168       0.00000000       0.00000000       0.00004857      -0.00000000       0.00000000      -0.00036750      -0.00000000      -0.00000000      -0.00080742       0.00000000      -0.00000000      -0.00036750      -0.00036964       0.00096256       0.00034164      -0.00000000      -0.00002119       0.00032168       0.00002119      -0.00000000       0.00032168      -0.00096256       0.00036964       0.00034164      -0.00000000       0.03132539       0.02688400      -0.03132539       0.00000000       0.02688400      -0.00096256      -0.00036964       0.00034164       0.00036964       0.00096256       0.00034164       0.00000000       0.00000000      -0.00191772       0.00000000      -0.00000000      -0.00066950       0.00000000       0.00000000      -0.00036750      -0.00000000      -0.00000000      -0.00066950       0.00096256      -0.00036964       0.00034164      -0.00002119       0.00000000       0.00032168       0.00000000       0.00002119       0.00032168       0.00036964      -0.00096256       0.00034164       0.00096256       0.00096256       0.00172611      -0.00000000       0.00000000       0.00287037      -0.00096256      -0.00096256       0.00172611       0.00000000       0.00000000       0.00046044 </v>
[...]
       <r>    25.2535     0.0000   648.0000 </r>
       <r>    25.5427     0.0000   648.0000 </r>
       <r>    25.8318     0.0000   648.0000 </r>
       <r>    26.1209     0.0000   648.0000 </r>
       <r>    26.4101     0.0000   648.0000 </r>
       <r>    26.6992     0.0000   648.0000 </r>
       <r>    26.9884     0.0000   648.0000 </r>
       <r>    27.2775     0.0000   648.0000 </r>
       <r>    27.5667     0.0000   648.0000 </r>
      </set>
      <set comment="spin 2">
       <r>   -59.1773     0.0000     0.0000 </r>
       <r>   -58.8881     0.0000     0.0000 </r>
       <r>   -58.5990     0.0000     0.0000 </r>
       <r>   -58.3098     0.0000     0.0000 </r>
       <r>   -58.0207     0.0000     0.0000 </r>
       <r>   -57.7315     0.0000     0.0000 </r>
       <r>   -57.4424     0.0000     0.0000 </r>
       <r>   -57.1533     0.0000     0.0000 </r>
       <r>   -56.8641     0.0000     0.0000 </r>
       <r>   -56.5750     0.0000     0.0000 </r>
       <r>   -56.2858    -0.0000    -0.0000 </r>
       <r>   -55.9967    -0.0000    -0.0000 </r>
       <r>   -55.7075    -0.0000    -0.0000 </r>
       <r>   -55.4184    -0.0000    -0.0000 </r>
       <r>   -55.1292    -0.0003    -0.0001 </r>
       <r>   -54.8401    -0.7270    -0.2103 </r>
       <r>   -54.5509    -7.5081    -2.3812 </r>
       <r>   -54.2618   364.0145   102.8723 </r>
       <r>   -53.9726   323.5160   196.4159 </r>
       <r>   -53.6835   -14.9946   192.0802 </r>
       <r>   -53.3944    -0.2773   192.0000 </r>
       <r>   -53.1052    -0.0000   192.0000 </r>
       <r>   -52.8161    -0.0000   192.0000 </r>
       <r>   -52.5269     0.0000   192.0000 </r>
       <r>   -52.2378     0.0000   192.0000 </r>
       <r>   -51.9486     0.0000   192.0000 </r>
       <r>   -51.6595     0.0000   192.0000 </r>
       <r>   -51.3703     0.0000   192.0000 </r>
       <r>   -51.0812     0.0000   192.0000 </r>
       <r>   -50.7920     0.0000   192.0000 </r>
       <r>   -50.5029     0.0000   192.0000 </r>
       <r>   -50.2137     0.0000   192.0000 </r>
       <r>   -49.9246     0.0000   192.0000 </r>
       <r>   -49.6354     0.0000   192.0000 </r>
       <r>   -49.3463     0.0000   192.0000 </r>
       <r>   -49.0572     0.0000   192.0000 </r>
       <r>   -48.7680     0.0000   192.0000 </r>
       <r>   -48.4789     0.0000   192.0000 </r>
       <r>   -48.1897     0.0000   192.0000 </r>
       <r>   -47.9006     0.0000   192.0000 </r>
       <r>   -47.6114     0.0000   192.0000 </r>
       <r>   -47.3223     0.0000   192.0000 </r>
       <r>   -47.0331     0.0000   192.0000 </r>
       <r>   -46.7440     0.0000   192.0000 </r>
       <r>   -46.4548     0.0000   192.0000 </r>
       <r>   -46.1657     0.0000   192.0000 </r>
       <r>   -45.8765     0.0000   192.0000 </r>
       <r>   -45.5874     0.0000   192.0000 </r>
       <r>   -45.2982     0.0000   192.0000 </r>
       <r>   -45.0091     0.0000   192.0000 </r>
       <r>   -44.7200     0.0000   192.0000 </r>
       <r>   -44.4308     0.0000   192.0000 </r>
       <r>   -44.1417     0.0000   192.0000 </r>
       <r>   -43.8525     0.0000   192.0000 </r>
       <r>   -43.5634     0.0000   192.0000 </r>
       <r>   -43.2742     0.0000   192.0000 </r>
       <r>   -42.9851     0.0000   192.0000 </r>
       <r>   -42.6959     0.0000   192.0000 </r>
       <r>   -42.4068     0.0000   192.0000 </r>
       <r>   -42.1176     0.0000   192.0000 </r>
       <r>   -41.8285     0.0000   192.0000 </r>
       <r>   -41.5393     0.0000   192.0000 </r>
       <r>   -41.2502     0.0000   192.0000 </r>
       <r>   -40.9611     0.0000   192.0000 </r>
       <r>   -40.6719     0.0000   192.0000 </r>
       <r>   -40.3828     0.0000   192.0000 </r>
       <r>   -40.0936     0.0000   192.0000 </r>
       <r>   -39.8045     0.0000   192.0000 </r>
       <r>   -39.5153     0.0000   192.0000 </r>
       <r>   -39.2262     0.0000   192.0000 </r>
       <r>   -38.9370     0.0000   192.0000 </r>
       <r>   -38.6479     0.0000   192.0000 </r>
       <r>   -38.3587     0.0000   192.0000 </r>
       <r>   -38.0696     0.0000   192.0000 </r>
       <r>   -37.7804     0.0000   192.0000 </r>
       <r>   -37.4913     0.0000   192.0000 </r>
       <r>   -37.2021     0.0000   192.0000 </r>
       <r>   -36.9130     0.0000   192.0000 </r>
       <r>   -36.6239     0.0000   192.0000 </r>
       <r>   -36.3347     0.0000   192.0000 </r>
       <r>   -36.0456     0.0000   192.0000 </r>
       <r>   -35.7564     0.0000   192.0000 </r>
       <r>   -35.4673     0.0000   192.0000 </r>
       <r>   -35.1781     0.0000   192.0000 </r>
       <r>   -34.8890     0.0000   192.0000 </r>
       <r>   -34.5998     0.0000   192.0000 </r>
       <r>   -34.3107     0.0000   192.0000 </r>
       <r>   -34.0215     0.0000   192.0000 </r>
       <r>   -33.7324     0.0000   192.0000 </r>
       <r>   -33.4432     0.0000   192.0000 </r>
       <r>   -33.1541     0.0000   192.0000 </r>
       <r>   -32.8649     0.0000   192.0000 </r>
       <r>   -32.5758     0.0000   192.0000 </r>
       <r>   -32.2867     0.0000   192.0000 </r>
       <r>   -31.9975     0.0000   192.0000 </r>
       <r>   -31.7084     0.0000   192.0000 </r>
       <r>   -31.4192     0.0000   192.0000 </r>
       <r>   -31.1301     0.0000   192.0000 </r>
       <r>   -30.8409     0.0000   192.0000 </r>
       <r>   -30.5518     0.0000   192.0000 </r>
       <r>   -30.2626     0.0000   192.0000 </r>
       <r>   -29.9735     0.0000   192.0000 </r>
       <r>   -29.6843     0.0000   192.0000 </r>
       <r>   -29.3952     0.0000   192.0000 </r>
       <r>   -29.1060     0.0000   192.0000 </r>
       <r>   -28.8169     0.0000   192.0000 </r>
       <r>   -28.5277     0.0000   192.0000 </r>
       <r>   -28.2386     0.0000   192.0000 </r>
       <r>   -27.9495     0.0000   192.0000 </r>
       <r>   -27.6603     0.0000   192.0000 </r>
       <r>   -27.3712     0.0000   192.0000 </r>
       <r>   -27.0820     0.0000   192.0000 </r>
       <r>   -26.7929     0.0000   192.0000 </r>
       <r>   -26.5037     0.0000   192.0000 </r>
       <r>   -26.2146     0.0000   192.0000 </r>
       <r>   -25.9254     0.0000   192.0000 </r>
       <r>   -25.6363     0.0000   192.0000 </r>
       <r>   -25.3471     0.0000   192.0000 </r>
       <r>   -25.0580     0.0000   192.0000 </r>
       <r>   -24.7688     0.0000   192.0000 </r>
       <r>   -24.4797     0.0000   192.0000 </r>
       <r>   -24.1906     0.0000   192.0000 </r>
       <r>   -23.9014     0.0000   192.0000 </r>
       <r>   -23.6123     0.0000   192.0000 </r>
       <r>   -23.3231     0.0000   192.0000 </r>
       <r>   -23.0340     0.0000   192.0000 </r>
       <r>   -22.7448     0.0000   192.0000 </r>
       <r>   -22.4557     0.0000   192.0000 </r>
       <r>   -22.1665     0.0000   192.0000 </r>
       <r>   -21.8774     0.0000   192.0000 </r>
       <r>   -21.5882     0.0000   192.0000 </r>
       <r>   -21.2991     0.0000   192.0000 </r>
       <r>   -21.0099     0.0000   192.0000 </r>
       <r>   -20.7208     0.0000   192.0000 </r>
       <r>   -20.4316     0.0000   192.0000 </r>
       <r>   -20.1425     0.0000   192.0000 </r>
       <r>   -19.8534     0.0000   192.0000 </r>
       <r>   -19.5642     0.0000   192.0000 </r>
       <r>   -19.2751     0.0000   192.0000 </r>
       <r>   -18.9859     0.0000   192.0000 </r>
       <r>   -18.6968     0.0000   192.0000 </r>
       <r>   -18.4076     0.0000   192.0000 </r>
       <r>   -18.1185     0.0000   192.0000 </r>
       <r>   -17.8293     0.0000   192.0000 </r>
       <r>   -17.5402     0.0000   192.0000 </r>
       <r>   -17.2510     0.0000   192.0000 </r>
       <r>   -16.9619     0.0000   192.0000 </r>
       <r>   -16.6727     0.0000   192.0000 </r>
       <r>   -16.3836     0.0000   192.0000 </r>
       <r>   -16.0944     0.0000   192.0000 </r>
       <r>   -15.8053     0.0000   192.0000 </r>
       <r>   -15.5162     0.0000   192.0000 </r>
       <r>   -15.2270     0.0000   192.0000 </r>
       <r>   -14.9379     0.0000   192.0000 </r>
       <r>   -14.6487     0.0000   192.0000 </r>
       <r>   -14.3596     0.0000   192.0000 </r>
       <r>   -14.0704     0.0000   192.0000 </r>
       <r>   -13.7813     0.0000   192.0000 </r>
       <r>   -13.4921     0.0000   192.0000 </r>
       <r>   -13.2030     0.0000   192.0000 </r>
       <r>   -12.9138     0.0000   192.0000 </r>
       <r>   -12.6247     0.0000   192.0000 </r>
       <r>   -12.3355     0.0000   192.0000 </r>
       <r>   -12.0464     0.0000   192.0000 </r>
       <r>   -11.7573     0.0000   192.0000 </r>
       <r>   -11.4681     0.0000   192.0000 </r>
       <r>   -11.1790     0.0000   192.0000 </r>
       <r>   -10.8898     0.0000   192.0000 </r>
       <r>   -10.6007     0.0000   192.0000 </r>
       <r>   -10.3115     0.0000   192.0000 </r>
       <r>   -10.0224     0.0000   192.0000 </r>
       <r>    -9.7332     0.0000   192.0000 </r>
       <r>    -9.4441     0.0000   192.0000 </r>
       <r>    -9.1549     0.0000   192.0000 </r>
       <r>    -8.8658     0.0000   192.0000 </r>
       <r>    -8.5766     0.0000   192.0000 </r>
       <r>    -8.2875     0.0000   192.0000 </r>
       <r>    -7.9983     0.0000   192.0000 </r>
       <r>    -7.7092     0.0000   192.0000 </r>
       <r>    -7.4201     0.0000   192.0000 </r>
       <r>    -7.1309     0.0000   192.0000 </r>
       <r>    -6.8418     0.0000   192.0000 </r>
       <r>    -6.5526     0.0000   192.0000 </r>
       <r>    -6.2635     0.0000   192.0000 </r>
       <r>    -5.9743     0.0000   192.0000 </r>
       <r>    -5.6852     0.0000   192.0000 </r>
       <r>    -5.3960     0.0000   192.0000 </r>
       <r>    -5.1069     0.0000   192.0000 </r>
       <r>    -4.8177     0.0000   192.0000 </r>
       <r>    -4.5286     0.0000   192.0000 </r>
       <r>    -4.2394     0.0000   192.0000 </r>
       <r>    -3.9503     0.0000   192.0000 </r>
       <r>    -3.6611     0.0000   192.0000 </r>
       <r>    -3.3720     0.0000   192.0000 </r>
       <r>    -3.0829     0.0000   192.0000 </r>
       <r>    -2.7937     0.0000   192.0000 </r>
       <r>    -2.5046    -0.0000   192.0000 </r>
       <r>    -2.2154    -0.0000   192.0000 </r>
       <r>    -1.9263    -0.0000   192.0000 </r>
       <r>    -1.6371    -0.0000   192.0000 </r>
       <r>    -1.3480    -0.0000   192.0000 </r>
       <r>    -1.0588    -0.0023   191.9993 </r>
       <r>    -0.7697     0.0169   192.0042 </r>
       <r>    -0.4805     0.4206   192.1258 </r>
       <r>    -0.1914     1.4329   192.5402 </r>
       <r>     0.0978     1.0206   192.8353 </r>
       <r>     0.3869     3.3227   193.7960 </r>
       <r>     0.6761     1.4788   194.2236 </r>
       <r>     0.9652     1.4061   194.6302 </r>
       <r>     1.2543     5.2283   196.1419 </r>
       <r>     1.5435     2.8942   196.9788 </r>
       <r>     1.8326     4.2231   198.1999 </r>
       <r>     2.1218     0.7801   198.4254 </r>
       <r>     2.4109     8.6605   200.9296 </r>
       <r>     2.7001     4.5509   202.2455 </r>
       <r>     2.9892     6.4907   204.1222 </r>
       <r>     3.2784     2.8588   204.9488 </r>
       <r>     3.5675    10.3274   207.9350 </r>
       <r>     3.8567    14.2930   212.0677 </r>
       <r>     4.1458    15.2370   216.4735 </r>
       <r>     4.4350    23.8276   223.3631 </r>
       <r>     4.7241    39.6473   234.8270 </r>
       <r>     5.0132    26.8576   242.5928 </r>
       <r>     5.3024    51.4778   257.4774 </r>
       <r>     5.5915    51.6023   272.3981 </r>
       <r>     5.8807    43.9157   285.0961 </r>
       <r>     6.1698    46.5374   298.5523 </r>
       <r>     6.4590    57.6543   315.2228 </r>
       <r>     6.7481    65.8336   334.2584 </r>
       <r>     7.0373    77.0778   356.5451 </r>
       <r>     7.3264    85.0407   381.1344 </r>
       <r>     7.6156    62.8762   399.3148 </r>
       <r>     7.9047    56.0558   415.5231 </r>
       <r>     8.1939    81.0350   438.9541 </r>
       <r>     8.4830    54.0538   454.5836 </r>
       <r>     8.7722    75.2540   476.3431 </r>
       <r>     9.0613    79.6545   499.3749 </r>
       <r>     9.3504    86.4845   524.3816 </r>
       <r>     9.6396    26.0885   531.9250 </r>
       <r>     9.9287    16.5009   536.6961 </r>
       <r>    10.2179     6.9473   538.7049 </r>
       <r>    10.5070     4.4136   539.9811 </r>
       <r>    10.7962    12.4830   543.5905 </r>
       <r>    11.0853    11.5342   546.9256 </r>
       <r>    11.3745    12.4217   550.5173 </r>
       <r>    11.6636     4.1028   551.7036 </r>
       <r>    11.9528     7.5716   553.8929 </r>
       <r>    12.2419     7.9849   556.2017 </r>
       <r>    12.5311     7.3044   558.3137 </r>
       <r>    12.8202    12.4654   561.9181 </r>
       <r>    13.1094     2.4639   562.6305 </r>
       <r>    13.3985     8.5143   565.0924 </r>
       <r>    13.6876     9.3649   567.8002 </r>
       <r>    13.9768    -0.1102   567.7683 </r>
       <r>    14.2659     0.4228   567.8906 </r>
       <r>    14.5551    11.9883   571.3570 </r>
       <r>    14.8442     2.7502   572.1522 </r>
       <r>    15.1334     3.2217   573.0837 </r>
       <r>    15.4225     3.8842   574.2068 </r>
       <r>    15.7117     6.3606   576.0460 </r>
       <r>    16.0008     6.1374   577.8206 </r>
       <r>    16.2900     9.2489   580.4948 </r>
       <r>    16.5791     9.0840   583.1215 </r>
       <r>    16.8683     8.3255   585.5287 </r>
       <r>    17.1574     9.9477   588.4051 </r>
       <r>    17.4466     8.3565   590.8214 </r>
       <r>    17.7357     7.6951   593.0464 </r>
       <r>    18.0248    12.1850   596.5696 </r>
       <r>    18.3140     6.9467   598.5782 </r>
       <r>    18.6031     3.2565   599.5198 </r>
       <r>    18.8923     8.0753   601.8548 </r>
       <r>    19.1814     6.5081   603.7366 </r>
       <r>    19.4706     9.4330   606.4641 </r>
       <r>    19.7597     4.6755   607.8160 </r>
       <r>    20.0489    12.9625   611.5641 </r>
       <r>    20.3380     6.8995   613.5590 </r>
       <r>    20.6272    13.2061   617.3775 </r>
       <r>    20.9163    18.4460   622.7111 </r>
       <r>    21.2055     7.5945   624.9071 </r>
       <r>    21.4946    11.2905   628.1717 </r>
       <r>    21.7837    12.3490   631.7423 </r>
       <r>    22.0729    11.0653   634.9418 </r>
       <r>    22.3620     1.7209   635.4394 </r>
       <r>    22.6512    13.6711   639.3924 </r>
       <r>    22.9403    15.5851   643.8988 </r>
       <r>    23.2295     7.7039   646.1263 </r>
       <r>    23.5186     3.3599   647.0978 </r>
       <r>    23.8078     3.2120   648.0266 </r>
       <r>    24.0969    -0.0858   648.0017 </r>
       <r>    24.3861    -0.0060   648.0000 </r>
       <r>    24.6752    -0.0000   648.0000 </r>
       <r>    24.9644    -0.0000   648.0000 </r>
       <r>    25.2535     0.0000   648.0000 </r>
       <r>    25.5427     0.0000   648.0000 </r>
       <r>    25.8318     0.0000   648.0000 </r>
       <r>    26.1209     0.0000   648.0000 </r>
       <r>    26.4101     0.0000   648.0000 </r>
       <r>    26.6992     0.0000   648.0000 </r>
       <r>    26.9884     0.0000   648.0000 </r>
       <r>    27.2775     0.0000   648.0000 </r>
       <r>    27.5667     0.0000   648.0000 </r>
      </set>
     </set>
    </array>
   </total>
  </dos>
 </calculation>
 <structure name="finalpos" >
  <crystal>
   <varray name="basis" >
    <v>       0.00000000       6.83850000       6.83850000 </v>
    <v>       6.83850000       0.00000000       6.83850000 </v>
    <v>       6.83850000       6.83850000       0.00000000 </v>
   </varray>
   <i name="volume">    639.60602993 </i>
   <varray name="rec_basis" >
    <v>      -0.07311545       0.07311545       0.07311545 </v>
    <v>       0.07311545      -0.07311545       0.07311545 </v>
    <v>       0.07311545       0.07311545      -0.07311545 </v>
   </varray>
  </crystal>
  <varray name="positions" >
   <v>       0.00109673      -0.00109673      -0.00109673 </v>
   <v>       0.00000000       0.00000000       0.25000000 </v>
   <v>       0.00000000       0.00000000       0.50000000 </v>
   <v>       0.00000000       0.00000000       0.75000000 </v>
   <v>       0.00000000       0.25000000       0.00000000 </v>
   <v>       0.00000000       0.25000000       0.25000000 </v>
   <v>       0.00000000       0.25000000       0.50000000 </v>
   <v>       0.00000000       0.25000000       0.75000000 </v>
   <v>       0.00000000       0.50000000       0.00000000 </v>
   <v>       0.00000000       0.50000000       0.25000000 </v>
   <v>       0.00000000       0.50000000       0.50000000 </v>
   <v>       0.00000000       0.50000000       0.75000000 </v>
   <v>       0.00000000       0.75000000       0.00000000 </v>
   <v>       0.00000000       0.75000000       0.25000000 </v>
   <v>       0.00000000       0.75000000       0.50000000 </v>
   <v>       0.00000000       0.75000000       0.75000000 </v>
   <v>       0.25000000       0.00000000       0.00000000 </v>
   <v>       0.25000000       0.00000000       0.25000000 </v>
   <v>       0.25000000       0.00000000       0.50000000 </v>
   <v>       0.25000000       0.00000000       0.75000000 </v>
   <v>       0.25000000       0.25000000       0.00000000 </v>
   <v>       0.25000000       0.25000000       0.25000000 </v>
   <v>       0.25000000       0.25000000       0.50000000 </v>
   <v>       0.25000000       0.25000000       0.75000000 </v>
   <v>       0.25000000       0.50000000       0.00000000 </v>
   <v>       0.25000000       0.50000000       0.25000000 </v>
   <v>       0.25000000       0.50000000       0.50000000 </v>
   <v>       0.25000000       0.50000000       0.75000000 </v>
   <v>       0.25000000       0.75000000       0.00000000 </v>
   <v>       0.25000000       0.75000000       0.25000000 </v>
   <v>       0.25000000       0.75000000       0.50000000 </v>
   <v>       0.25000000       0.75000000       0.75000000 </v>
   <v>       0.50000000       0.00000000       0.00000000 </v>
   <v>       0.50000000       0.00000000       0.25000000 </v>
   <v>       0.50000000       0.00000000       0.50000000 </v>
   <v>       0.50000000       0.00000000       0.75000000 </v>
   <v>       0.50000000       0.25000000       0.00000000 </v>
   <v>       0.50000000       0.25000000       0.25000000 </v>
   <v>       0.50000000       0.25000000       0.50000000 </v>
   <v>       0.50000000       0.25000000       0.75000000 </v>
   <v>       0.50000000       0.50000000       0.00000000 </v>
   <v>       0.50000000       0.50000000       0.25000000 </v>
   <v>       0.50000000       0.50000000       0.50000000 </v>
   <v>       0.50000000       0.50000000       0.75000000 </v>
   <v>       0.50000000       0.75000000       0.00000000 </v>
   <v>       0.50000000       0.75000000       0.25000000 </v>
   <v>       0.50000000       0.75000000       0.50000000 </v>
   <v>       0.50000000       0.75000000       0.75000000 </v>
   <v>       0.75000000       0.00000000       0.00000000 </v>
   <v>       0.75000000       0.00000000       0.25000000 </v>
   <v>       0.75000000       0.00000000       0.50000000 </v>
   <v>       0.75000000       0.00000000       0.75000000 </v>
   <v>       0.75000000       0.25000000       0.00000000 </v>
   <v>       0.75000000       0.25000000       0.25000000 </v>
   <v>       0.75000000       0.25000000       0.50000000 </v>
   <v>       0.75000000       0.25000000       0.75000000 </v>
   <v>       0.75000000       0.50000000       0.00000000 </v>
   <v>       0.75000000       0.50000000       0.25000000 </v>
   <v>       0.75000000       0.50000000       0.50000000 </v>
   <v>       0.75000000       0.50000000       0.75000000 </v>
   <v>       0.75000000       0.75000000       0.00000000 </v>
   <v>       0.75000000       0.75000000       0.25000000 </v>
   <v>       0.75000000       0.75000000       0.50000000 </v>
   <v>       0.75000000       0.75000000       0.75000000 </v>
  </varray>
 </structure>
</modeling>
