       N       E                     dE             d eps       ncg     rms          rms(c)
DAV:   1     0.162937742590E+05    0.16294E+05   -0.58650E+05 11504   0.228E+03
DAV:   2     0.125029973077E+04   -0.15043E+05   -0.14581E+05 10368   0.732E+02
DAV:   3    -0.336250182743E+03   -0.15865E+04   -0.13348E+04 10464   0.254E+02
DAV:   4    -0.426971103795E+03   -0.90721E+02   -0.88190E+02 11064   0.642E+01
DAV:   5    -0.428472657752E+03   -0.15016E+01   -0.14999E+01 11048   0.801E+00    0.668E+01
DAV:   6    -0.387188673837E+03    0.41284E+02   -0.52375E+02 10888   0.714E+01    0.416E+01
DAV:   7    -0.366539659356E+03    0.20649E+02   -0.88976E+01 10880   0.299E+01    0.613E+00
DAV:   8    -0.366378407218E+03    0.16125E+00   -0.98235E-01 11064   0.224E+00    0.262E+00
DAV:   9    -0.366295403096E+03    0.83004E-01   -0.10309E-01 12928   0.633E-01    0.564E-01
DAV:  10    -0.366298718341E+03   -0.33152E-02   -0.91844E-03 11272   0.190E-01    0.218E-01
DAV:  11    -0.366299580298E+03   -0.86196E-03   -0.15794E-03 11128   0.945E-02    0.717E-02
DAV:  12    -0.366299703948E+03   -0.12365E-03   -0.18049E-04 10920   0.276E-02    0.507E-02
DAV:  13    -0.366299704502E+03   -0.55326E-06   -0.12870E-05  9944   0.914E-03    0.243E-02
DAV:  14    -0.366299672041E+03    0.32460E-04   -0.13677E-05  9584   0.103E-02    0.384E-03
DAV:  15    -0.366299668835E+03    0.32059E-05   -0.73636E-07  5504   0.220E-03    0.943E-04
DAV:  16    -0.366299669202E+03   -0.36659E-06   -0.10056E-07  5472   0.987E-04
   1 F= -.36629967E+03 E0= -.36620891E+03  d E =-.272270E+00  mag=    38.8701
 Linear response reoptimize wavefunctions
DAV:   1    -0.366299669972E+03   -0.77006E-06   -0.17363E-08  5560   0.384E-04
DAV:   2    -0.366299669972E+03    0.11642E-09   -0.33680E-09  5456   0.234E-04
DAV:   3    -0.366299669971E+03    0.26193E-09   -0.75923E-10  5432   0.115E-04
 Linear response DOF=           1
 Linear response progress:
  Degree of freedom:   1/  1
       N       E                     dE             d eps       ncg     rms          rms(c)
RMM:   1    -0.135073440700E+01   -0.13507E+01   -0.44626E+02 15692   0.111E+02
RMM:   2    -0.161506368796E+01   -0.26433E+00   -0.11401E-01 25330   0.669E-01    0.361E-01
RMM:   3    -0.161559995828E+01   -0.53627E-03   -0.23232E-03 24005   0.103E-01    0.916E-01
RMM:   4    -0.161409936143E+01    0.15006E-02   -0.15728E-03 17754   0.102E-01    0.470E-01
RMM:   5    -0.161493770370E+01   -0.83834E-03   -0.61059E-04 18424   0.591E-02    0.490E-01
RMM:   6    -0.161388702861E+01    0.10507E-02   -0.26076E-04 17533   0.459E-02    0.928E-02
RMM:   7    -0.161391278451E+01   -0.25756E-04   -0.12349E-04 19012   0.268E-02    0.224E-01
RMM:   8    -0.161358008908E+01    0.33270E-03   -0.75884E-05 18071   0.239E-02    0.592E-02
RMM:   9    -0.161359565817E+01   -0.15569E-04   -0.25472E-06 22318   0.920E-03    0.331E-02
RMM:  10    -0.161338614250E+01    0.20952E-03   -0.41245E-06 26707   0.460E-03    0.218E-02
RMM:  11    -0.161351193434E+01   -0.12579E-03    0.69511E-06 26689   0.291E-03    0.112E-02
RMM:  12    -0.161339083178E+01    0.12110E-03    0.81422E-07 26195   0.257E-03    0.106E-02
RMM:  13    -0.161341490784E+01   -0.24076E-04    0.26641E-06 26305   0.228E-03    0.473E-03
RMM:  14    -0.161340493069E+01    0.99771E-05    0.27845E-07 30349   0.170E-03    0.561E-03
RMM:  15    -0.161339265881E+01    0.12272E-04   -0.43447E-06 32250   0.156E-03    0.141E-03
RMM:  16    -0.161339165331E+01    0.10055E-05    0.18452E-06 34430   0.136E-03    0.252E-03
RMM:  17    -0.161339340780E+01   -0.17545E-05    0.22412E-06 35069   0.131E-03    0.429E-04
RMM:  18    -0.161339141236E+01    0.19954E-05    0.11338E-05 37702   0.123E-03    0.435E-04
RMM:  19    -0.161339347131E+01   -0.20589E-05    0.11300E-05 38068   0.123E-03    0.967E-05
 Linear response finished
