 vasp.5.4.1 05Feb16 (build Oct 12 2016 17:31:35) complex                        
  
 executed on           IFC91_ompi date 2020.09.08  20:46:25
 running on    8 total cores
 distrk:  each k-point on    8 cores,    1 groups
 distr:  one band on NCORES_PER_BAND=   1 cores,    8 groups


--------------------------------------------------------------------------------------------------------


 INCAR:
 POTCAR:   PAW_PBE Ni_pv 06Sep2000                

 ----------------------------------------------------------------------------- 
|                                                                             |
|           W    W    AA    RRRRR   N    N  II  N    N   GGGG   !!!           |
|           W    W   A  A   R    R  NN   N  II  NN   N  G    G  !!!           |
|           W    W  A    A  R    R  N N  N  II  N N  N  G       !!!           |
|           W WW W  AAAAAA  RRRRR   N  N N  II  N  N N  G  GGG   !            |
|           WW  WW  A    A  R   R   N   NN  II  N   NN  G    G                |
|           W    W  A    A  R    R  N    N  II  N    N   GGGG   !!!           |
|                                                                             |
|      For optimal performance we recommend to set                            |
|        NCORE= 4 - approx SQRT( number of cores)                             |
|      NCORE specifies how many cores store one orbital (NPAR=cpu/NCORE).     |
|      This setting can  greatly improve the performance of VASP for DFT.     |
|      The default, NPAR=number of cores might be grossly inefficient         |
|      on modern multi-core architectures or massively parallel machines.     |
|      Do your own testing !!!!                                               |
|      Unfortunately you need to use the default for GW and RPA calculations. |
|      (for HF NCORE is supported but not extensively tested yet)             |
|                                                                             |
 ----------------------------------------------------------------------------- 

 POTCAR:   PAW_PBE Ni_pv 06Sep2000                
  local pseudopotential read in
  partial core-charges read in
  atomic valenz-charges read in
  non local Contribution for L=           1  read in
    real space projection operators read in
  non local Contribution for L=           1  read in
    real space projection operators read in
  non local Contribution for L=           2  read in
    real space projection operators read in
  non local Contribution for L=           2  read in
    real space projection operators read in
  non local Contribution for L=           0  read in
    real space projection operators read in
  non local Contribution for L=           0  read in
    real space projection operators read in
    PAW grid and wavefunctions read in
 
   number of l-projection  operators is LMAX  =           6
   number of lm-projection operators is LMMAX =          18
 

 ----------------------------------------------------------------------------- 
|                                                                             |
|  ADVICE TO THIS USER RUNNING 'VASP/VAMP'   (HEAR YOUR MASTER'S VOICE ...):  |
|                                                                             |
|      You have a (more or less) 'large supercell' and for larger cells       |
|      it might be more efficient to use real space projection operators      |
|      So try LREAL= Auto  in the INCAR   file.                               |
|      Mind: If you want to do a very accurate calculations keep the          |
|      reciprocal projection scheme          (i.e. LREAL=.FALSE.)             |
|                                                                             |
 ----------------------------------------------------------------------------- 

 PAW_PBE Ni_pv 06Sep2000                :
 energy of atom  1       EATOM=-3500.3496
 kinetic energy error for atom=    0.0894 (will be added to EATOM!!)
 
 
 POSCAR: Supercell by Yi Wang                    
  positions in direct lattice
  No initial velocities read in
 exchange correlation table for  LEXCH =        8
   RHO(1)=    0.500       N(1)  =     2000
   RHO(2)=  100.500       N(2)  =     4000
 


--------------------------------------------------------------------------------------------------------


 ion  position               nearest neighbor table
   1  0.000  0.000  0.000-   2 2.42   4 2.42   5 2.42   8 2.42  13 2.42  14 2.42  17 2.42  20 2.42
                            29 2.42  49 2.42  50 2.42  53 2.42
   2  0.000  0.000  0.250-   1 2.42   3 2.42   5 2.42   6 2.42  14 2.42  15 2.42  17 2.42  18 2.42
                            30 2.42  50 2.42  51 2.42  54 2.42
   3  0.000  0.000  0.500-   2 2.42   4 2.42   6 2.42   7 2.42  15 2.42  16 2.42  18 2.42  19 2.42
                            31 2.42  51 2.42  52 2.42  55 2.42
   4  0.000  0.000  0.750-   1 2.42   3 2.42   7 2.42   8 2.42  13 2.42  16 2.42  19 2.42  20 2.42
                            32 2.42  49 2.42  52 2.42  56 2.42
   5  0.000  0.250  0.000-   1 2.42   2 2.42   6 2.42   8 2.42   9 2.42  12 2.42  17 2.42  21 2.42
                            24 2.42  53 2.42  54 2.42  57 2.42
   6  0.000  0.250  0.250-   2 2.42   3 2.42   5 2.42   7 2.42   9 2.42  10 2.42  18 2.42  21 2.42
                            22 2.42  54 2.42  55 2.42  58 2.42
   7  0.000  0.250  0.500-   3 2.42   4 2.42   6 2.42   8 2.42  10 2.42  11 2.42  19 2.42  22 2.42
                            23 2.42  55 2.42  56 2.42  59 2.42
   8  0.000  0.250  0.750-   1 2.42   4 2.42   5 2.42   7 2.42  11 2.42  12 2.42  20 2.42  23 2.42
                            24 2.42  53 2.42  56 2.42  60 2.42
   9  0.000  0.500  0.000-   5 2.42   6 2.42  10 2.42  12 2.42  13 2.42  16 2.42  21 2.42  25 2.42
                            28 2.42  57 2.42  58 2.42  61 2.42
  10  0.000  0.500  0.250-   6 2.42   7 2.42   9 2.42  11 2.42  13 2.42  14 2.42  22 2.42  25 2.42
                            26 2.42  58 2.42  59 2.42  62 2.42
  11  0.000  0.500  0.500-   7 2.42   8 2.42  10 2.42  12 2.42  14 2.42  15 2.42  23 2.42  26 2.42
                            27 2.42  59 2.42  60 2.42  63 2.42
  12  0.000  0.500  0.750-   5 2.42   8 2.42   9 2.42  11 2.42  15 2.42  16 2.42  24 2.42  27 2.42
                            28 2.42  57 2.42  60 2.42  64 2.42
  13  0.000  0.750  0.000-   1 2.42   4 2.42   9 2.42  10 2.42  14 2.42  16 2.42  25 2.42  29 2.42
                            32 2.42  49 2.42  61 2.42  62 2.42
  14  0.000  0.750  0.250-   1 2.42   2 2.42  10 2.42  11 2.42  13 2.42  15 2.42  26 2.42  29 2.42
                            30 2.42  50 2.42  62 2.42  63 2.42
  15  0.000  0.750  0.500-   2 2.42   3 2.42  11 2.42  12 2.42  14 2.42  16 2.42  27 2.42  30 2.42
                            31 2.42  51 2.42  63 2.42  64 2.42
  16  0.000  0.750  0.750-   3 2.42   4 2.42   9 2.42  12 2.42  13 2.42  15 2.42  28 2.42  31 2.42
                            32 2.42  52 2.42  61 2.42  64 2.42
  17  0.250  0.000  0.000-   1 2.42   2 2.42   5 2.42  18 2.42  20 2.42  21 2.42  24 2.42  29 2.42
                            30 2.42  33 2.42  36 2.42  45 2.42
  18  0.250  0.000  0.250-   2 2.42   3 2.42   6 2.42  17 2.42  19 2.42  21 2.42  22 2.42  30 2.42
                            31 2.42  33 2.42  34 2.42  46 2.42
  19  0.250  0.000  0.500-   3 2.42   4 2.42   7 2.42  18 2.42  20 2.42  22 2.42  23 2.42  31 2.42
                            32 2.42  34 2.42  35 2.42  47 2.42
  20  0.250  0.000  0.750-   1 2.42   4 2.42   8 2.42  17 2.42  19 2.42  23 2.42  24 2.42  29 2.42
                            32 2.42  35 2.42  36 2.42  48 2.42
  21  0.250  0.250  0.000-   5 2.42   6 2.42   9 2.42  17 2.42  18 2.42  22 2.42  24 2.42  25 2.42
                            28 2.42  33 2.42  37 2.42  40 2.42
  22  0.250  0.250  0.250-   6 2.42   7 2.42  10 2.42  18 2.42  19 2.42  21 2.42  23 2.42  25 2.42
                            26 2.42  34 2.42  37 2.42  38 2.42
  23  0.250  0.250  0.500-   7 2.42   8 2.42  11 2.42  19 2.42  20 2.42  22 2.42  24 2.42  26 2.42
                            27 2.42  35 2.42  38 2.42  39 2.42
  24  0.250  0.250  0.750-   5 2.42   8 2.42  12 2.42  17 2.42  20 2.42  21 2.42  23 2.42  27 2.42
                            28 2.42  36 2.42  39 2.42  40 2.42
  25  0.250  0.500  0.000-   9 2.42  10 2.42  13 2.42  21 2.42  22 2.42  26 2.42  28 2.42  29 2.42
                            32 2.42  37 2.42  41 2.42  44 2.42
  26  0.250  0.500  0.250-  10 2.42  11 2.42  14 2.42  22 2.42  23 2.42  25 2.42  27 2.42  29 2.42
                            30 2.42  38 2.42  41 2.42  42 2.42
  27  0.250  0.500  0.500-  11 2.42  12 2.42  15 2.42  23 2.42  24 2.42  26 2.42  28 2.42  30 2.42
                            31 2.42  39 2.42  42 2.42  43 2.42
  28  0.250  0.500  0.750-   9 2.42  12 2.42  16 2.42  21 2.42  24 2.42  25 2.42  27 2.42  31 2.42
                            32 2.42  40 2.42  43 2.42  44 2.42
  29  0.250  0.750  0.000-   1 2.42  13 2.42  14 2.42  17 2.42  20 2.42  25 2.42  26 2.42  30 2.42
                            32 2.42  41 2.42  45 2.42  48 2.42
  30  0.250  0.750  0.250-   2 2.42  14 2.42  15 2.42  17 2.42  18 2.42  26 2.42  27 2.42  29 2.42
                            31 2.42  42 2.42  45 2.42  46 2.42
  31  0.250  0.750  0.500-   3 2.42  15 2.42  16 2.42  18 2.42  19 2.42  27 2.42  28 2.42  30 2.42
                            32 2.42  43 2.42  46 2.42  47 2.42
  32  0.250  0.750  0.750-   4 2.42  13 2.42  16 2.42  19 2.42  20 2.42  25 2.42  28 2.42  29 2.42
                            31 2.42  44 2.42  47 2.42  48 2.42
  33  0.500  0.000  0.000-  17 2.42  18 2.42  21 2.42  34 2.42  36 2.42  37 2.42  40 2.42  45 2.42
                            46 2.42  49 2.42  52 2.42  61 2.42
  34  0.500  0.000  0.250-  18 2.42  19 2.42  22 2.42  33 2.42  35 2.42  37 2.42  38 2.42  46 2.42
                            47 2.42  49 2.42  50 2.42  62 2.42
  35  0.500  0.000  0.500-  19 2.42  20 2.42  23 2.42  34 2.42  36 2.42  38 2.42  39 2.42  47 2.42
                            48 2.42  50 2.42  51 2.42  63 2.42
  36  0.500  0.000  0.750-  17 2.42  20 2.42  24 2.42  33 2.42  35 2.42  39 2.42  40 2.42  45 2.42
                            48 2.42  51 2.42  52 2.42  64 2.42
  37  0.500  0.250  0.000-  21 2.42  22 2.42  25 2.42  33 2.42  34 2.42  38 2.42  40 2.42  41 2.42
                            44 2.42  49 2.42  53 2.42  56 2.42
  38  0.500  0.250  0.250-  22 2.42  23 2.42  26 2.42  34 2.42  35 2.42  37 2.42  39 2.42  41 2.42
                            42 2.42  50 2.42  53 2.42  54 2.42
  39  0.500  0.250  0.500-  23 2.42  24 2.42  27 2.42  35 2.42  36 2.42  38 2.42  40 2.42  42 2.42
                            43 2.42  51 2.42  54 2.42  55 2.42
  40  0.500  0.250  0.750-  21 2.42  24 2.42  28 2.42  33 2.42  36 2.42  37 2.42  39 2.42  43 2.42
                            44 2.42  52 2.42  55 2.42  56 2.42
  41  0.500  0.500  0.000-  25 2.42  26 2.42  29 2.42  37 2.42  38 2.42  42 2.42  44 2.42  45 2.42
                            48 2.42  53 2.42  57 2.42  60 2.42
  42  0.500  0.500  0.250-  26 2.42  27 2.42  30 2.42  38 2.42  39 2.42  41 2.42  43 2.42  45 2.42
                            46 2.42  54 2.42  57 2.42  58 2.42
  43  0.500  0.500  0.500-  27 2.42  28 2.42  31 2.42  39 2.42  40 2.42  42 2.42  44 2.42  46 2.42
                            47 2.42  55 2.42  58 2.42  59 2.42
  44  0.500  0.500  0.750-  25 2.42  28 2.42  32 2.42  37 2.42  40 2.42  41 2.42  43 2.42  47 2.42
                            48 2.42  56 2.42  59 2.42  60 2.42
  45  0.500  0.750  0.000-  17 2.42  29 2.42  30 2.42  33 2.42  36 2.42  41 2.42  42 2.42  46 2.42
                            48 2.42  57 2.42  61 2.42  64 2.42
  46  0.500  0.750  0.250-  18 2.42  30 2.42  31 2.42  33 2.42  34 2.42  42 2.42  43 2.42  45 2.42
                            47 2.42  58 2.42  61 2.42  62 2.42
  47  0.500  0.750  0.500-  19 2.42  31 2.42  32 2.42  34 2.42  35 2.42  43 2.42  44 2.42  46 2.42
                            48 2.42  59 2.42  62 2.42  63 2.42
  48  0.500  0.750  0.750-  20 2.42  29 2.42  32 2.42  35 2.42  36 2.42  41 2.42  44 2.42  45 2.42
                            47 2.42  60 2.42  63 2.42  64 2.42
  49  0.750  0.000  0.000-   1 2.42   4 2.42  13 2.42  33 2.42  34 2.42  37 2.42  50 2.42  52 2.42
                            53 2.42  56 2.42  61 2.42  62 2.42
  50  0.750  0.000  0.250-   1 2.42   2 2.42  14 2.42  34 2.42  35 2.42  38 2.42  49 2.42  51 2.42
                            53 2.42  54 2.42  62 2.42  63 2.42
  51  0.750  0.000  0.500-   2 2.42   3 2.42  15 2.42  35 2.42  36 2.42  39 2.42  50 2.42  52 2.42
                            54 2.42  55 2.42  63 2.42  64 2.42
  52  0.750  0.000  0.750-   3 2.42   4 2.42  16 2.42  33 2.42  36 2.42  40 2.42  49 2.42  51 2.42
                            55 2.42  56 2.42  61 2.42  64 2.42
  53  0.750  0.250  0.000-   1 2.42   5 2.42   8 2.42  37 2.42  38 2.42  41 2.42  49 2.42  50 2.42
                            54 2.42  56 2.42  57 2.42  60 2.42
  54  0.750  0.250  0.250-   2 2.42   5 2.42   6 2.42  38 2.42  39 2.42  42 2.42  50 2.42  51 2.42
                            53 2.42  55 2.42  57 2.42  58 2.42
  55  0.750  0.250  0.500-   3 2.42   6 2.42   7 2.42  39 2.42  40 2.42  43 2.42  51 2.42  52 2.42
                            54 2.42  56 2.42  58 2.42  59 2.42
  56  0.750  0.250  0.750-   4 2.42   7 2.42   8 2.42  37 2.42  40 2.42  44 2.42  49 2.42  52 2.42
                            53 2.42  55 2.42  59 2.42  60 2.42
  57  0.750  0.500  0.000-   5 2.42   9 2.42  12 2.42  41 2.42  42 2.42  45 2.42  53 2.42  54 2.42
                            58 2.42  60 2.42  61 2.42  64 2.42
  58  0.750  0.500  0.250-   6 2.42   9 2.42  10 2.42  42 2.42  43 2.42  46 2.42  54 2.42  55 2.42
                            57 2.42  59 2.42  61 2.42  62 2.42
  59  0.750  0.500  0.500-   7 2.42  10 2.42  11 2.42  43 2.42  44 2.42  47 2.42  55 2.42  56 2.42
                            58 2.42  60 2.42  62 2.42  63 2.42
  60  0.750  0.500  0.750-   8 2.42  11 2.42  12 2.42  41 2.42  44 2.42  48 2.42  53 2.42  56 2.42
                            57 2.42  59 2.42  63 2.42  64 2.42
  61  0.750  0.750  0.000-   9 2.42  13 2.42  16 2.42  33 2.42  45 2.42  46 2.42  49 2.42  52 2.42
                            57 2.42  58 2.42  62 2.42  64 2.42
  62  0.750  0.750  0.250-  10 2.42  13 2.42  14 2.42  34 2.42  46 2.42  47 2.42  49 2.42  50 2.42
                            58 2.42  59 2.42  61 2.42  63 2.42
  63  0.750  0.750  0.500-  11 2.42  14 2.42  15 2.42  35 2.42  47 2.42  48 2.42  50 2.42  51 2.42
                            59 2.42  60 2.42  62 2.42  64 2.42
  64  0.750  0.750  0.750-  12 2.42  15 2.42  16 2.42  36 2.42  45 2.42  48 2.42  51 2.42  52 2.42
                            57 2.42  60 2.42  61 2.42  63 2.42
 
  LATTYP: Found a face centered cubic cell.
 ALAT       =    13.6770000000
  
  Lattice vectors:
  
 A1 = (   0.0000000000,   6.8385000000,   6.8385000000)
 A2 = (   6.8385000000,   0.0000000000,   6.8385000000)
 A3 = (   6.8385000000,   6.8385000000,   0.0000000000)


Analysis of symmetry for initial positions (statically):
=====================================================================
 Subroutine PRICEL returns following result:
 
  LATTYP: Found a face centered cubic cell.
 ALAT       =     3.4192500000
  
  Lattice vectors:
  
 A1 = (   0.0000000000,   1.7096250000,   1.7096250000)
 A2 = (   1.7096250000,   0.0000000000,   1.7096250000)
 A3 = (   1.7096250000,   1.7096250000,   0.0000000000)
 
  64 primitive cells build up your supercell.
 

 Routine SETGRP: Setting up the symmetry group for a 
 face centered cubic supercell.


 Subroutine GETGRP returns: Found 48 space group operations
 (whereof 48 operations were pure point group operations)
 out of a pool of 48 trial point group operations.


The static configuration has the point symmetry O_h .


Analysis of symmetry for dynamics (positions and initial velocities):
=====================================================================
 Subroutine PRICEL returns following result:
 
  LATTYP: Found a face centered cubic cell.
 ALAT       =     3.4192500000
  
  Lattice vectors:
  
 A1 = (   0.0000000000,   1.7096250000,   1.7096250000)
 A2 = (   1.7096250000,   0.0000000000,   1.7096250000)
 A3 = (   1.7096250000,   1.7096250000,   0.0000000000)
 
  64 primitive cells build up your supercell.
 

 Routine SETGRP: Setting up the symmetry group for a 
 face centered cubic supercell.


 Subroutine GETGRP returns: Found 48 space group operations
 (whereof 48 operations were pure point group operations)
 out of a pool of 48 trial point group operations.


The dynamic configuration has the point symmetry O_h .


Analysis of structural, dynamic, and magnetic symmetry:
=====================================================================
 Subroutine PRICEL returns following result:
 
  LATTYP: Found a face centered cubic cell.
 ALAT       =     3.4192500000
  
  Lattice vectors:
  
 A1 = (   0.0000000000,   1.7096250000,   1.7096250000)
 A2 = (   1.7096250000,   0.0000000000,   1.7096250000)
 A3 = (   1.7096250000,   1.7096250000,   0.0000000000)
 
  64 primitive cells build up your supercell.
 

 Routine SETGRP: Setting up the symmetry group for a 
 face centered cubic supercell.


 Subroutine GETGRP returns: Found 48 space group operations
 (whereof 48 operations were pure point group operations)
 out of a pool of 48 trial point group operations.


The magnetic configuration has the point symmetry O_h .


 Subroutine INISYM returns: Found 48 space group operations
 (whereof 48 operations are pure point group operations),
 and found    64 'primitive' translations

 
 
 KPOINTS: Zr 15x15x15                             

Automatic generation of k-mesh.
Space group operators:
 irot       det(A)        alpha          n_x          n_y          n_z        tau_x        tau_y        tau_z
    1     1.000000     0.000000     1.000000     0.000000     0.000000     0.000000     0.000000     0.000000
    2    -1.000000     0.000000     1.000000     0.000000     0.000000     0.000000     0.000000     0.000000
    3     1.000000   120.000000    -0.577350    -0.577350    -0.577350     0.000000     0.000000     0.000000
    4    -1.000000   120.000000    -0.577350    -0.577350    -0.577350     0.000000     0.000000     0.000000
    5     1.000000   120.000000     0.577350     0.577350     0.577350     0.000000     0.000000     0.000000
    6    -1.000000   120.000000     0.577350     0.577350     0.577350     0.000000     0.000000     0.000000
    7     1.000000    90.000000     0.000000     0.000000    -1.000000     0.000000     0.000000     0.000000
    8    -1.000000    90.000000     0.000000     0.000000    -1.000000     0.000000     0.000000     0.000000
    9     1.000000   180.000000     0.000000     0.707107     0.707107     0.000000     0.000000     0.000000
   10    -1.000000   180.000000     0.000000     0.707107     0.707107     0.000000     0.000000     0.000000
   11     1.000000    90.000000     0.000000     1.000000     0.000000     0.000000     0.000000     0.000000
   12    -1.000000    90.000000     0.000000     1.000000     0.000000     0.000000     0.000000     0.000000
   13     1.000000   180.000000     0.000000     0.000000     1.000000     0.000000     0.000000     0.000000
   14    -1.000000   180.000000     0.000000     0.000000     1.000000     0.000000     0.000000     0.000000
   15     1.000000   120.000000    -0.577350     0.577350     0.577350     0.000000     0.000000     0.000000
   16    -1.000000   120.000000    -0.577350     0.577350     0.577350     0.000000     0.000000     0.000000
   17     1.000000   120.000000    -0.577350     0.577350    -0.577350     0.000000     0.000000     0.000000
   18    -1.000000   120.000000    -0.577350     0.577350    -0.577350     0.000000     0.000000     0.000000
   19     1.000000    90.000000     0.000000     0.000000     1.000000     0.000000     0.000000     0.000000
   20    -1.000000    90.000000     0.000000     0.000000     1.000000     0.000000     0.000000     0.000000
   21     1.000000    90.000000    -1.000000     0.000000     0.000000     0.000000     0.000000     0.000000
   22    -1.000000    90.000000    -1.000000     0.000000     0.000000     0.000000     0.000000     0.000000
   23     1.000000   180.000000     0.707107     0.000000     0.707107     0.000000     0.000000     0.000000
   24    -1.000000   180.000000     0.707107     0.000000     0.707107     0.000000     0.000000     0.000000
   25     1.000000   120.000000     0.577350    -0.577350     0.577350     0.000000     0.000000     0.000000
   26    -1.000000   120.000000     0.577350    -0.577350     0.577350     0.000000     0.000000     0.000000
   27     1.000000   120.000000    -0.577350    -0.577350     0.577350     0.000000     0.000000     0.000000
   28    -1.000000   120.000000    -0.577350    -0.577350     0.577350     0.000000     0.000000     0.000000
   29     1.000000   180.000000     1.000000     0.000000     0.000000     0.000000     0.000000     0.000000
   30    -1.000000   180.000000     1.000000     0.000000     0.000000     0.000000     0.000000     0.000000
   31     1.000000    90.000000     0.000000    -1.000000     0.000000     0.000000     0.000000     0.000000
   32    -1.000000    90.000000     0.000000    -1.000000     0.000000     0.000000     0.000000     0.000000
   33     1.000000   180.000000     0.707107     0.707107     0.000000     0.000000     0.000000     0.000000
   34    -1.000000   180.000000     0.707107     0.707107     0.000000     0.000000     0.000000     0.000000
   35     1.000000    90.000000     1.000000     0.000000     0.000000     0.000000     0.000000     0.000000
   36    -1.000000    90.000000     1.000000     0.000000     0.000000     0.000000     0.000000     0.000000
   37     1.000000   120.000000     0.577350    -0.577350    -0.577350     0.000000     0.000000     0.000000
   38    -1.000000   120.000000     0.577350    -0.577350    -0.577350     0.000000     0.000000     0.000000
   39     1.000000   180.000000     0.000000     1.000000     0.000000     0.000000     0.000000     0.000000
   40    -1.000000   180.000000     0.000000     1.000000     0.000000     0.000000     0.000000     0.000000
   41     1.000000   120.000000     0.577350     0.577350    -0.577350     0.000000     0.000000     0.000000
   42    -1.000000   120.000000     0.577350     0.577350    -0.577350     0.000000     0.000000     0.000000
   43     1.000000   180.000000     0.000000    -0.707107     0.707107     0.000000     0.000000     0.000000
   44    -1.000000   180.000000     0.000000    -0.707107     0.707107     0.000000     0.000000     0.000000
   45     1.000000   180.000000     0.707107    -0.707107     0.000000     0.000000     0.000000     0.000000
   46    -1.000000   180.000000     0.707107    -0.707107     0.000000     0.000000     0.000000     0.000000
   47     1.000000   180.000000     0.707107     0.000000    -0.707107     0.000000     0.000000     0.000000
   48    -1.000000   180.000000     0.707107     0.000000    -0.707107     0.000000     0.000000     0.000000
 
 Subroutine IBZKPT returns following result:
 ===========================================
 
 Found      4 irreducible k-points:
 
 Following reciprocal coordinates:
            Coordinates               Weight
  0.000000  0.000000  0.000000      1.000000
  0.333333  0.000000  0.000000      8.000000
  0.333333  0.333333  0.000000      6.000000
 -0.333333  0.333333  0.000000     12.000000
 
 Following cartesian coordinates:
            Coordinates               Weight
  0.000000  0.000000  0.000000      1.000000
 -0.024372  0.024372  0.024372      8.000000
  0.000000  0.000000  0.048744      6.000000
  0.048744 -0.048744  0.000000     12.000000
 
 
 Subroutine IBZKPT_HF returns following result:
 ==============================================
 
 Found     27 k-points in 1st BZ
 the following     27 k-points will be used (e.g. in the exchange kernel)
 Following reciprocal coordinates:   # in IRBZ
  0.000000  0.000000  0.000000    0.03703704   1 t-inv F
  0.333333  0.000000  0.000000    0.03703704   2 t-inv F
  0.333333  0.333333  0.000000    0.03703704   3 t-inv F
 -0.333333  0.333333  0.000000    0.03703704   4 t-inv F
 -0.333333  0.000000  0.000000    0.03703704   2 t-inv F
  0.000000  0.333333  0.000000    0.03703704   2 t-inv F
  0.000000 -0.333333  0.000000    0.03703704   2 t-inv F
  0.000000  0.000000  0.333333    0.03703704   2 t-inv F
  0.000000  0.000000 -0.333333    0.03703704   2 t-inv F
  0.333333  0.333333  0.333333    0.03703704   2 t-inv F
 -0.333333 -0.333333 -0.333333    0.03703704   2 t-inv F
 -0.333333 -0.333333  0.000000    0.03703704   3 t-inv F
  0.000000  0.333333  0.333333    0.03703704   3 t-inv F
  0.000000 -0.333333 -0.333333    0.03703704   3 t-inv F
  0.333333  0.000000  0.333333    0.03703704   3 t-inv F
 -0.333333  0.000000 -0.333333    0.03703704   3 t-inv F
  0.333333 -0.333333  0.000000    0.03703704   4 t-inv F
  0.000000 -0.333333  0.333333    0.03703704   4 t-inv F
  0.000000  0.333333 -0.333333    0.03703704   4 t-inv F
  0.333333  0.000000 -0.333333    0.03703704   4 t-inv F
 -0.333333  0.000000  0.333333    0.03703704   4 t-inv F
  0.333333  0.333333  0.666667    0.03703704   4 t-inv F
 -0.333333 -0.333333 -0.666667    0.03703704   4 t-inv F
 -0.333333 -0.666667 -0.333333    0.03703704   4 t-inv F
  0.333333  0.666667  0.333333    0.03703704   4 t-inv F
 -0.666667 -0.333333 -0.333333    0.03703704   4 t-inv F
  0.666667  0.333333  0.333333    0.03703704   4 t-inv F


--------------------------------------------------------------------------------------------------------




 Dimension of arrays:
   k-points           NKPTS =      4   k-points in BZ     NKDIM =      4   number of bands    NBANDS=    648
   number of dos      NEDOS =    301   number of ions     NIONS =     64
   non local maximal  LDIM  =      6   non local SUM 2l+1 LMDIM =     18
   total plane-waves  NPLWV = 343000
   max r-space proj   IRMAX =      1   max aug-charges    IRDMAX=   6261
   dimension x,y,z NGX =    70 NGY =   70 NGZ =   70
   dimension x,y,z NGXF=   112 NGYF=  112 NGZF=  112
   support grid    NGXF=   112 NGYF=  112 NGZF=  112
   ions per type =              64
 NGX,Y,Z   is equivalent  to a cutoff of  12.03, 12.03, 12.03 a.u.
 NGXF,Y,Z  is equivalent  to a cutoff of  19.25, 19.25, 19.25 a.u.


 I would recommend the setting:
   dimension x,y,z NGX =    68 NGY =   68 NGZ =   68
 SYSTEM =  phonon of Zr bcc - omiga                
 POSCAR =  Supercell by Yi Wang                    

 Startparameter for this run:
   NWRITE =      0    write-flag & timer
   PREC   = h         normal or accurate (medium, high low for compatibility)
   ISTART =      0    job   : 0-new  1-cont  2-samecut
   ICHARG =      2    charge: 1-file 2-atom 10-const
   ISPIN  =      2    spin polarized calculation?
   LNONCOLLINEAR =      F non collinear calculations
   LSORBIT =      F    spin-orbit coupling
   INIWAV =      1    electr: 0-lowe 1-rand  2-diag
   LASPH  =      F    aspherical Exc in radial PAW
   METAGGA=      F    non-selfconsistent MetaGGA calc.

 Electronic Relaxation 1
   ENCUT  =  459.9 eV  33.80 Ry    5.81 a.u.  16.91 16.91 16.91*2*pi/ulx,y,z
   ENINI  =  459.9     initial cutoff
   ENAUG  =  703.4 eV  augmentation charge cutoff
   NELM   =     60;   NELMIN=  2; NELMDL= -5     # of ELM steps 
   EDIFF  = 0.1E-05   stopping-criterion for ELM
   LREAL  =      F    real-space projection
   NLSPLINE    = F    spline interpolate recip. space projectors
   LCOMPAT=      F    compatible to vasp.4.4
   GGA_COMPAT  = T    GGA compatible to vasp.4.4-vasp.4.6
   LMAXPAW     = -100 max onsite density
   LMAXMIX     =    2 max onsite mixed and CHGCAR
   VOSKOWN=      0    Vosko Wilk Nusair interpolation
   ROPT   =    0.00000
 Ionic relaxation
   EDIFFG = 0.1E-04   stopping-criterion for IOM
   NSW    =      1    number of steps for IOM
   NBLOCK =      1;   KBLOCK =      1    inner block; outer block 
   IBRION =      8    ionic relax: 0-MD 1-quasi-New 2-CG
   NFREE  =      0    steps in history (QN), initial steepest desc. (CG)
   ISIF   =      2    stress and relaxation
   IWAVPR =     11    prediction:  0-non 1-charg 2-wave 3-comb
   ISYM   =      2    0-nonsym 1-usesym 2-fastsym
   LCORR  =      T    Harris-Foulkes like correction to forces

   POTIM  = 0.5000    time-step for ionic-motion
   TEIN   =    0.0    initial temperature
   TEBEG  =    0.0;   TEEND  =   0.0 temperature during run
   SMASS  =  -3.00    Nose mass-parameter (am)
   estimated Nose-frequenzy (Omega)   =  0.10E-29 period in steps =****** mass=  -0.214E-26a.u.
   SCALEE = 1.0000    scale energy and forces
   NPACO  =    256;   APACO  = 16.0  distance and # of slots for P.C.
   PSTRESS=    0.0 pullay stress

  Mass of Ions in am
   POMASS =  58.69
  Ionic Valenz
   ZVAL   =  16.00
  Atomic Wigner-Seitz radii
   RWIGS  =  -1.00
  virtual crystal weights 
   VCA    =   1.00
   NELECT =    1024.0000    total number of electrons
   NUPDOWN=      -1.0000    fix difference up-down

 DOS related values:
   EMIN   =  10.00;   EMAX   =-10.00  energy-range for DOS
   EFERMI =   0.00
   ISMEAR =     1;   SIGMA  =   0.20  broadening in eV -4-tet -1-fermi 0-gaus

 Electronic relaxation 2 (details)
   IALGO  =     38    algorithm
   LDIAG  =      T    sub-space diagonalisation (order eigenvalues)
   LSUBROT=      F    optimize rotation matrix (better conditioning)
   TURBO    =      0    0=normal 1=particle mesh
   IRESTART =      0    0=no restart 2=restart with 2 vectors
   NREBOOT  =      0    no. of reboots
   NMIN     =      0    reboot dimension
   EREF     =   0.00    reference energy to select bands
   IMIX   =      4    mixing-type and parameters
     AMIX     =   0.40;   BMIX     =  1.00
     AMIX_MAG =   1.60;   BMIX_MAG =  1.00
     AMIN     =   0.10
     WC   =   100.;   INIMIX=   1;  MIXPRE=   1;  MAXMIX= -45

 Intra band minimization:
   WEIMIN = 0.0010     energy-eigenvalue tresh-hold
   EBREAK =  0.39E-09  absolut break condition
   DEPER  =   0.30     relativ break condition  

   TIME   =   0.40     timestep for ELM

  volume/ion in A,a.u.               =       9.99        67.44
  Fermi-wavevector in a.u.,A,eV,Ry     =   1.915155  3.619118 49.903711  3.667819
  Thomas-Fermi vector in A             =   2.950909
 
 Write flags
   LWAVE  =      T    write WAVECAR
   LCHARG =      T    write CHGCAR
   LVTOT  =      F    write LOCPOT, total local potential
   LVHAR  =      F    write LOCPOT, Hartree potential only
   LELF   =      F    write electronic localiz. function (ELF)
   LORBIT =      0    0 simple, 1 ext, 2 COOP (PROOUT)


 Dipole corrections
   LMONO  =      F    monopole corrections only (constant potential shift)
   LDIPOL =      F    correct potential (dipole corrections)
   IDIPOL =      0    1-x, 2-y, 3-z, 4-all directions 
   EPSILON=  1.0000000 bulk dielectric constant

 Exchange correlation treatment:
   GGA     =    --    GGA type
   LEXCH   =     8    internal setting for exchange type
   VOSKOWN=      0    Vosko Wilk Nusair interpolation
   LHFCALC =     F    Hartree Fock is set to
   LHFONE  =     F    Hartree Fock one center treatment
   AEXX    =    0.0000 exact exchange contribution

 Linear response parameters
   LEPSILON=     F    determine dielectric tensor
   LRPA    =     F    only Hartree local field effects (RPA)
   LNABLA  =     F    use nabla operator in PAW spheres
   LVEL    =     F    velocity operator in full k-point grid
   LINTERFAST=   F  fast interpolation
   KINTER  =     0    interpolate to denser k-point grid
   CSHIFT  =0.1000    complex shift for real part using Kramers Kronig
   OMEGAMAX=  -1.0    maximum frequency
   DEG_THRESHOLD= 0.2000000E-02 threshold for treating states as degnerate
   RTIME   =    0.100 relaxation time in fs

 Orbital magnetization related:
   ORBITALMAG=     F  switch on orbital magnetization
   LCHIMAG   =     F  perturbation theory with respect to B field
   DQ        =  0.001000  dq finite difference perturbation B field



--------------------------------------------------------------------------------------------------------


 linear response using symmetry
 charge density and potential will be updated during run
 spin polarized calculation
 Variant of blocked Davidson
 Davidson routine will perform the subspace rotation
 perform sub-space diagonalisation
    after iterative eigenvector-optimisation
 modified Broyden-mixing scheme, WC =      100.0
 initial mixing is a Kerker type mixing with AMIX =  0.4000 and BMIX =      1.0000
 Hartree-type preconditioning will be used
 using additional bands          136
 reciprocal scheme for non local part
 use partial core corrections
 calculate Harris-corrections to forces 
   (improved forces if not selfconsistent)
 use gradient corrections 
 use of overlap-Matrix (Vanderbilt PP)
 Methfessel and Paxton  Order N= 1 SIGMA  =   0.20


--------------------------------------------------------------------------------------------------------


  energy-cutoff  :      459.93
  volume of cell :      639.61
      direct lattice vectors                 reciprocal lattice vectors
     0.000000000  6.838500000  6.838500000    -0.073115449  0.073115449  0.073115449
     6.838500000  0.000000000  6.838500000     0.073115449 -0.073115449  0.073115449
     6.838500000  6.838500000  0.000000000     0.073115449  0.073115449 -0.073115449

  length of vectors
     9.671099446  9.671099446  9.671099446     0.126639673  0.126639673  0.126639673


 
 k-points in units of 2pi/SCALE and weight: Zr 15x15x15                             
   0.00000000  0.00000000  0.00000000       0.037
  -0.02437182  0.02437182  0.02437182       0.296
   0.00000000  0.00000000  0.04874363       0.222
   0.04874363 -0.04874363  0.00000000       0.444
 
 k-points in reciprocal lattice and weights: Zr 15x15x15                             
   0.00000000  0.00000000  0.00000000       0.037
   0.33333333  0.00000000  0.00000000       0.296
   0.33333333  0.33333333  0.00000000       0.222
  -0.33333333  0.33333333  0.00000000       0.444
 
 position of ions in fractional coordinates (direct lattice) 
   0.00000000  0.00000000  0.00000000
   0.00000000  0.00000000  0.25000000
   0.00000000  0.00000000  0.50000000
   0.00000000  0.00000000  0.75000000
   0.00000000  0.25000000  0.00000000
   0.00000000  0.25000000  0.25000000
   0.00000000  0.25000000  0.50000000
   0.00000000  0.25000000  0.75000000
   0.00000000  0.50000000  0.00000000
   0.00000000  0.50000000  0.25000000
   0.00000000  0.50000000  0.50000000
   0.00000000  0.50000000  0.75000000
   0.00000000  0.75000000  0.00000000
   0.00000000  0.75000000  0.25000000
   0.00000000  0.75000000  0.50000000
   0.00000000  0.75000000  0.75000000
   0.25000000  0.00000000  0.00000000
   0.25000000  0.00000000  0.25000000
   0.25000000  0.00000000  0.50000000
   0.25000000  0.00000000  0.75000000
   0.25000000  0.25000000  0.00000000
   0.25000000  0.25000000  0.25000000
   0.25000000  0.25000000  0.50000000
   0.25000000  0.25000000  0.75000000
   0.25000000  0.50000000  0.00000000
   0.25000000  0.50000000  0.25000000
   0.25000000  0.50000000  0.50000000
   0.25000000  0.50000000  0.75000000
   0.25000000  0.75000000  0.00000000
   0.25000000  0.75000000  0.25000000
   0.25000000  0.75000000  0.50000000
   0.25000000  0.75000000  0.75000000
   0.50000000  0.00000000  0.00000000
   0.50000000  0.00000000  0.25000000
   0.50000000  0.00000000  0.50000000
   0.50000000  0.00000000  0.75000000
   0.50000000  0.25000000  0.00000000
   0.50000000  0.25000000  0.25000000
   0.50000000  0.25000000  0.50000000
   0.50000000  0.25000000  0.75000000
   0.50000000  0.50000000  0.00000000
   0.50000000  0.50000000  0.25000000
   0.50000000  0.50000000  0.50000000
   0.50000000  0.50000000  0.75000000
   0.50000000  0.75000000  0.00000000
   0.50000000  0.75000000  0.25000000
   0.50000000  0.75000000  0.50000000
   0.50000000  0.75000000  0.75000000
   0.75000000  0.00000000  0.00000000
   0.75000000  0.00000000  0.25000000
   0.75000000  0.00000000  0.50000000
   0.75000000  0.00000000  0.75000000
   0.75000000  0.25000000  0.00000000
   0.75000000  0.25000000  0.25000000
   0.75000000  0.25000000  0.50000000
   0.75000000  0.25000000  0.75000000
   0.75000000  0.50000000  0.00000000
   0.75000000  0.50000000  0.25000000
   0.75000000  0.50000000  0.50000000
   0.75000000  0.50000000  0.75000000
   0.75000000  0.75000000  0.00000000
   0.75000000  0.75000000  0.25000000
   0.75000000  0.75000000  0.50000000
   0.75000000  0.75000000  0.75000000
 
 position of ions in cartesian coordinates  (Angst):
   0.00000000  0.00000000  0.00000000
   1.70962500  1.70962500  0.00000000
   3.41925000  3.41925000  0.00000000
   5.12887500  5.12887500  0.00000000
   1.70962500  0.00000000  1.70962500
   3.41925000  1.70962500  1.70962500
   5.12887500  3.41925000  1.70962500
   6.83850000  5.12887500  1.70962500
   3.41925000  0.00000000  3.41925000
   5.12887500  1.70962500  3.41925000
   6.83850000  3.41925000  3.41925000
   8.54812500  5.12887500  3.41925000
   5.12887500  0.00000000  5.12887500
   6.83850000  1.70962500  5.12887500
   8.54812500  3.41925000  5.12887500
  10.25775000  5.12887500  5.12887500
   0.00000000  1.70962500  1.70962500
   1.70962500  3.41925000  1.70962500
   3.41925000  5.12887500  1.70962500
   5.12887500  6.83850000  1.70962500
   1.70962500  1.70962500  3.41925000
   3.41925000  3.41925000  3.41925000
   5.12887500  5.12887500  3.41925000
   6.83850000  6.83850000  3.41925000
   3.41925000  1.70962500  5.12887500
   5.12887500  3.41925000  5.12887500
   6.83850000  5.12887500  5.12887500
   8.54812500  6.83850000  5.12887500
   5.12887500  1.70962500  6.83850000
   6.83850000  3.41925000  6.83850000
   8.54812500  5.12887500  6.83850000
  10.25775000  6.83850000  6.83850000
   0.00000000  3.41925000  3.41925000
   1.70962500  5.12887500  3.41925000
   3.41925000  6.83850000  3.41925000
   5.12887500  8.54812500  3.41925000
   1.70962500  3.41925000  5.12887500
   3.41925000  5.12887500  5.12887500
   5.12887500  6.83850000  5.12887500
   6.83850000  8.54812500  5.12887500
   3.41925000  3.41925000  6.83850000
   5.12887500  5.12887500  6.83850000
   6.83850000  6.83850000  6.83850000
   8.54812500  8.54812500  6.83850000
   5.12887500  3.41925000  8.54812500
   6.83850000  5.12887500  8.54812500
   8.54812500  6.83850000  8.54812500
  10.25775000  8.54812500  8.54812500
   0.00000000  5.12887500  5.12887500
   1.70962500  6.83850000  5.12887500
   3.41925000  8.54812500  5.12887500
   5.12887500 10.25775000  5.12887500
   1.70962500  5.12887500  6.83850000
   3.41925000  6.83850000  6.83850000
   5.12887500  8.54812500  6.83850000
   6.83850000 10.25775000  6.83850000
   3.41925000  5.12887500  8.54812500
   5.12887500  6.83850000  8.54812500
   6.83850000  8.54812500  8.54812500
   8.54812500 10.25775000  8.54812500
   5.12887500  5.12887500 10.25775000
   6.83850000  6.83850000 10.25775000
   8.54812500  8.54812500 10.25775000
  10.25775000 10.25775000 10.25775000
 


--------------------------------------------------------------------------------------------------------


 k-point  1 :   0.0000 0.0000 0.0000  plane waves:   14331
 k-point  2 :   0.3333 0.0000 0.0000  plane waves:   14344
 k-point  3 :   0.3333 0.3333 0.0000  plane waves:   14276
 k-point  4 :  -0.3333 0.3333 0.0000  plane waves:   14375

 maximum and minimum number of plane-waves per node :     14375    14276

 maximum number of plane-waves:     14375
 maximum index in each direction: 
   IXMAX=   17   IYMAX=   16   IZMAX=   16
   IXMIN=  -17   IYMIN=  -17   IZMIN=  -16

 NGX is ok and might be reduce to  70
 NGY is ok and might be reduce to  68
 NGZ is ok and might be reduce to  66

 serial   3D FFT for wavefunctions
 parallel 3D FFT for charge:
    minimum data exchange during FFTs selected (reduces bandwidth)


 total amount of memory used by VASP on root node   264075. kBytes
========================================================================

   base      :      30000. kBytes
   nonl-proj :      23001. kBytes
   fftplans  :       7674. kBytes
   grid      :      40416. kBytes
   one-center:       1990. kBytes
   wavefun   :     160994. kBytes
 
     INWAV:  cpu time    0.0000: real time    0.0000
 Broyden mixing: mesh for mixing (old mesh)
   NGX = 33   NGY = 33   NGZ = 33
  (NGX  =112   NGY  =112   NGZ  =112)
  gives a total of  35937 points

 initial charge density was supplied:
 charge density of overlapping atoms calculated
 number of electron    1024.0000000 magnetization      64.0000000
 keeping initial charge density in first step


--------------------------------------------------------------------------------------------------------


 Maximum index for augmentation-charges          775 (set IRDMAX)


--------------------------------------------------------------------------------------------------------


 First call to EWALD:  gamma=   0.206
 Maximum number of real-space cells 3x 3x 3
 Maximum number of reciprocal cells 3x 3x 3

 FEWALD executed in parallel
    FEWALD:  cpu time    0.0040: real time    0.0043


----------------------------------------- Iteration    1(   1)  ---------------------------------------


    POTLOK:  cpu time    0.2320: real time    0.2311
    SETDIJ:  cpu time    0.0450: real time    0.0450
     EDDAV:  cpu time  109.4524: real time  109.4269
       DOS:  cpu time    0.0020: real time    0.0021
    --------------------------------------------
      LOOP:  cpu time  109.7323: real time  109.7061

 eigenvalue-minimisations  : 11504
 total energy-change (2. order) : 0.1629377E+05  (-0.5865047E+05)
 number of electron    1024.0000000 magnetization      64.0000000
 augmentation part     1024.0000000 magnetization      64.0000000

 Free energy of the ion-electron system (eV)
  ---------------------------------------------------
  alpha Z        PSCENC =     10788.19976491
  Ewald energy   TEWEN  =   -158176.33604464
  -Hartree energ DENC   =    -59049.51858345
  -exchange      EXHF   =         0.00000000
  -V(xc)+E(xc)   XCENC  =      5740.19685534
  PAW double counting   =    172361.15642774  -181272.45834873
  entropy T*S    EENTRO =        -0.01148683
  eigenvalues    EBANDS =      1885.89350819
  atomic energy  EATOM  =    224016.65216645
  Solvation  Ediel_sol  =         0.00000000
  ---------------------------------------------------
  free energy    TOTEN  =     16293.77425900 eV

  energy without entropy =    16293.78574582  energy(sigma->0) =    16293.77808794


--------------------------------------------------------------------------------------------------------




----------------------------------------- Iteration    1(   2)  ---------------------------------------


     EDDAV:  cpu time  100.8227: real time  100.7442
       DOS:  cpu time    0.0030: real time    0.0022
    --------------------------------------------
      LOOP:  cpu time  100.8267: real time  100.7469

 eigenvalue-minimisations  : 10368
 total energy-change (2. order) :-0.1504347E+05  (-0.1458058E+05)
 number of electron    1024.0000000 magnetization      64.0000000
 augmentation part     1024.0000000 magnetization      64.0000000

 Free energy of the ion-electron system (eV)
  ---------------------------------------------------
  alpha Z        PSCENC =     10788.19976491
  Ewald energy   TEWEN  =   -158176.33604464
  -Hartree energ DENC   =    -59049.51858345
  -exchange      EXHF   =         0.00000000
  -V(xc)+E(xc)   XCENC  =      5740.19685534
  PAW double counting   =    172361.15642774  -181272.45834873
  entropy T*S    EENTRO =        -0.00338829
  eigenvalues    EBANDS =    -13157.58911856
  atomic energy  EATOM  =    224016.65216645
  Solvation  Ediel_sol  =         0.00000000
  ---------------------------------------------------
  free energy    TOTEN  =      1250.29973077 eV

  energy without entropy =     1250.30311906  energy(sigma->0) =     1250.30086020


--------------------------------------------------------------------------------------------------------




----------------------------------------- Iteration    1(   3)  ---------------------------------------


     EDDAV:  cpu time  101.3056: real time  101.2232
       DOS:  cpu time    0.0030: real time    0.0024
    --------------------------------------------
      LOOP:  cpu time  101.3096: real time  101.2261

 eigenvalue-minimisations  : 10464
 total energy-change (2. order) :-0.1586550E+04  (-0.1334756E+04)
 number of electron    1024.0000000 magnetization      64.0000000
 augmentation part     1024.0000000 magnetization      64.0000000

 Free energy of the ion-electron system (eV)
  ---------------------------------------------------
  alpha Z        PSCENC =     10788.19976491
  Ewald energy   TEWEN  =   -158176.33604464
  -Hartree energ DENC   =    -59049.51858345
  -exchange      EXHF   =         0.00000000
  -V(xc)+E(xc)   XCENC  =      5740.19685534
  PAW double counting   =    172361.15642774  -181272.45834873
  entropy T*S    EENTRO =         0.02935797
  eigenvalues    EBANDS =    -14744.17177834
  atomic energy  EATOM  =    224016.65216645
  Solvation  Ediel_sol  =         0.00000000
  ---------------------------------------------------
  free energy    TOTEN  =      -336.25018274 eV

  energy without entropy =     -336.27954071  energy(sigma->0) =     -336.25996873


--------------------------------------------------------------------------------------------------------




----------------------------------------- Iteration    1(   4)  ---------------------------------------


     EDDAV:  cpu time  105.6119: real time  105.5264
       DOS:  cpu time    0.0020: real time    0.0024
    --------------------------------------------
      LOOP:  cpu time  105.6149: real time  105.5293

 eigenvalue-minimisations  : 11064
 total energy-change (2. order) :-0.9072092E+02  (-0.8819033E+02)
 number of electron    1024.0000000 magnetization      64.0000000
 augmentation part     1024.0000000 magnetization      64.0000000

 Free energy of the ion-electron system (eV)
  ---------------------------------------------------
  alpha Z        PSCENC =     10788.19976491
  Ewald energy   TEWEN  =   -158176.33604464
  -Hartree energ DENC   =    -59049.51858345
  -exchange      EXHF   =         0.00000000
  -V(xc)+E(xc)   XCENC  =      5740.19685534
  PAW double counting   =    172361.15642774  -181272.45834873
  entropy T*S    EENTRO =         0.09758889
  eigenvalues    EBANDS =    -14834.96093031
  atomic energy  EATOM  =    224016.65216645
  Solvation  Ediel_sol  =         0.00000000
  ---------------------------------------------------
  free energy    TOTEN  =      -426.97110379 eV

  energy without entropy =     -427.06869268  energy(sigma->0) =     -427.00363342


--------------------------------------------------------------------------------------------------------




----------------------------------------- Iteration    1(   5)  ---------------------------------------


     EDDAV:  cpu time  105.4660: real time  105.3793
       DOS:  cpu time    0.0020: real time    0.0023
    CHARGE:  cpu time    5.1302: real time    5.1261
    MIXING:  cpu time    0.0050: real time    0.0049
    --------------------------------------------
      LOOP:  cpu time  110.6042: real time  110.5132

 eigenvalue-minimisations  : 11048
 total energy-change (2. order) :-0.1501554E+01  (-0.1499858E+01)
 number of electron    1024.0008022 magnetization      57.4832595
 augmentation part      574.6705488 magnetization      46.0448628

 Broyden mixing:
  rms(total) = 0.66767E+01    rms(broyden)= 0.66752E+01
  rms(prec ) = 0.91507E+01
  weight for this iteration     100.00

 Free energy of the ion-electron system (eV)
  ---------------------------------------------------
  alpha Z        PSCENC =     10788.19976491
  Ewald energy   TEWEN  =   -158176.33604464
  -Hartree energ DENC   =    -59049.51858345
  -exchange      EXHF   =         0.00000000
  -V(xc)+E(xc)   XCENC  =      5740.19685534
  PAW double counting   =    172361.15642774  -181272.45834873
  entropy T*S    EENTRO =         0.09856163
  eigenvalues    EBANDS =    -14836.46345701
  atomic energy  EATOM  =    224016.65216645
  Solvation  Ediel_sol  =         0.00000000
  ---------------------------------------------------
  free energy    TOTEN  =      -428.47265775 eV

  energy without entropy =     -428.57121938  energy(sigma->0) =     -428.50551163


--------------------------------------------------------------------------------------------------------




----------------------------------------- Iteration    1(   6)  ---------------------------------------


    POTLOK:  cpu time    0.2150: real time    0.2156
    SETDIJ:  cpu time    0.0450: real time    0.0449
     EDDAV:  cpu time  104.4051: real time  104.3196
       DOS:  cpu time    0.0020: real time    0.0023
    CHARGE:  cpu time    5.0322: real time    5.0277
    MIXING:  cpu time    0.0060: real time    0.0056
    --------------------------------------------
      LOOP:  cpu time  109.7063: real time  109.6163

 eigenvalue-minimisations  : 10888
 total energy-change (2. order) : 0.4128398E+02  (-0.5237494E+02)
 number of electron    1024.0008785 magnetization      50.3766863
 augmentation part      625.1228133 magnetization      44.9428325

 Broyden mixing:
  rms(total) = 0.41571E+01    rms(broyden)= 0.41568E+01
  rms(prec ) = 0.51898E+01
  weight for this iteration     100.00

 eigenvalues of (default mixing * dielectric matrix)
  average eigenvalue GAMMA=   0.5980
  0.5980

 Free energy of the ion-electron system (eV)
  ---------------------------------------------------
  alpha Z        PSCENC =     10788.19976491
  Ewald energy   TEWEN  =   -158176.33604464
  -Hartree energ DENC   =    -56021.05684493
  -exchange      EXHF   =         0.00000000
  -V(xc)+E(xc)   XCENC  =      5622.16789680
  PAW double counting   =    168942.76128007  -177565.33122137
  entropy T*S    EENTRO =        -0.28952437
  eigenvalues    EBANDS =    -17993.95614676
  atomic energy  EATOM  =    224016.65216645
  Solvation  Ediel_sol  =         0.00000000
  ---------------------------------------------------
  free energy    TOTEN  =      -387.18867384 eV

  energy without entropy =     -386.89914947  energy(sigma->0) =     -387.09216571


--------------------------------------------------------------------------------------------------------




----------------------------------------- Iteration    1(   7)  ---------------------------------------


    POTLOK:  cpu time    0.2170: real time    0.2171
    SETDIJ:  cpu time    0.0460: real time    0.0450
     EDDAV:  cpu time  266.6305: real time  523.9890
       DOS:  cpu time    0.0260: real time    0.0570
    CHARGE:  cpu time    8.0178: real time   16.0289
    MIXING:  cpu time    0.1140: real time    0.2293
    --------------------------------------------
      LOOP:  cpu time  275.0512: real time  540.5671

 eigenvalue-minimisations  : 10880
 total energy-change (2. order) : 0.2064901E+02  (-0.8897596E+01)
 number of electron    1024.0008489 magnetization      42.7319992
 augmentation part      605.7250948 magnetization      35.3190339

 Broyden mixing:
  rms(total) = 0.61335E+00    rms(broyden)= 0.61317E+00
  rms(prec ) = 0.75010E+00
  weight for this iteration     100.00

 eigenvalues of (default mixing * dielectric matrix)
  average eigenvalue GAMMA=   0.9028
  1.1860  0.6197

 Free energy of the ion-electron system (eV)
  ---------------------------------------------------
  alpha Z        PSCENC =     10788.19976491
  Ewald energy   TEWEN  =   -158176.33604464
  -Hartree energ DENC   =    -56971.18904474
  -exchange      EXHF   =         0.00000000
  -V(xc)+E(xc)   XCENC  =      5658.20668679
  PAW double counting   =    171328.84766503  -180223.72639633
  entropy T*S    EENTRO =        -0.18056803
  eigenvalues    EBANDS =    -16787.01388879
  atomic energy  EATOM  =    224016.65216645
  Solvation  Ediel_sol  =         0.00000000
  ---------------------------------------------------
  free energy    TOTEN  =      -366.53965936 eV

  energy without entropy =     -366.35909132  energy(sigma->0) =     -366.47947001


--------------------------------------------------------------------------------------------------------




----------------------------------------- Iteration    1(   8)  ---------------------------------------


    POTLOK:  cpu time    0.3859: real time    0.7703
    SETDIJ:  cpu time    0.1060: real time    0.2065
     EDDAV:  cpu time  284.0628: real time  567.6611
       DOS:  cpu time    0.0070: real time    0.0179
    CHARGE:  cpu time    7.9098: real time   15.8036
    MIXING:  cpu time    0.0690: real time    0.1415
    --------------------------------------------
      LOOP:  cpu time  292.5625: real time  584.6436

 eigenvalue-minimisations  : 11064
 total energy-change (2. order) : 0.1612521E+00  (-0.9823499E-01)
 number of electron    1024.0008489 magnetization      39.0753882
 augmentation part      605.6300580 magnetization      33.0707548

 Broyden mixing:
  rms(total) = 0.26203E+00    rms(broyden)= 0.26201E+00
  rms(prec ) = 0.34178E+00
  weight for this iteration     100.00

 eigenvalues of (default mixing * dielectric matrix)
  average eigenvalue GAMMA=   1.1872
  0.6378  0.8441  2.0797

 Free energy of the ion-electron system (eV)
  ---------------------------------------------------
  alpha Z        PSCENC =     10788.19976491
  Ewald energy   TEWEN  =   -158176.33604464
  -Hartree energ DENC   =    -56804.61492114
  -exchange      EXHF   =         0.00000000
  -V(xc)+E(xc)   XCENC  =      5652.22108128
  PAW double counting   =    172419.02225677  -181438.16527020
  entropy T*S    EENTRO =        -0.24503504
  eigenvalues    EBANDS =    -16823.11240560
  atomic energy  EATOM  =    224016.65216645
  Solvation  Ediel_sol  =         0.00000000
  ---------------------------------------------------
  free energy    TOTEN  =      -366.37840722 eV

  energy without entropy =     -366.13337218  energy(sigma->0) =     -366.29672887


--------------------------------------------------------------------------------------------------------




----------------------------------------- Iteration    1(   9)  ---------------------------------------


    POTLOK:  cpu time    0.4159: real time    0.8439
    SETDIJ:  cpu time    0.1720: real time    0.3469
     EDDAV:  cpu time  310.0829: real time  619.6523
       DOS:  cpu time    0.0300: real time    0.0623
    CHARGE:  cpu time    7.9848: real time   15.9543
    MIXING:  cpu time    0.0820: real time    0.1659
    --------------------------------------------
      LOOP:  cpu time  318.7885: real time  637.0884

 eigenvalue-minimisations  : 12928
 total energy-change (2. order) : 0.8300412E-01  (-0.1030854E-01)
 number of electron    1024.0008499 magnetization      38.9410958
 augmentation part      606.2499426 magnetization      33.6748873

 Broyden mixing:
  rms(total) = 0.56405E-01    rms(broyden)= 0.56394E-01
  rms(prec ) = 0.58085E-01
  weight for this iteration     100.00

 eigenvalues of (default mixing * dielectric matrix)
  average eigenvalue GAMMA=   1.1246
  2.3123  0.9212  0.6325  0.6325

 Free energy of the ion-electron system (eV)
  ---------------------------------------------------
  alpha Z        PSCENC =     10788.19976491
  Ewald energy   TEWEN  =   -158176.33604464
  -Hartree energ DENC   =    -56684.36438127
  -exchange      EXHF   =         0.00000000
  -V(xc)+E(xc)   XCENC  =      5647.84187449
  PAW double counting   =    173055.42299761  -182135.71481995
  entropy T*S    EENTRO =        -0.26959521
  eigenvalues    EBANDS =    -16877.72736549
  atomic energy  EATOM  =    224016.65216645
  Solvation  Ediel_sol  =         0.00000000
  ---------------------------------------------------
  free energy    TOTEN  =      -366.29540310 eV

  energy without entropy =     -366.02580789  energy(sigma->0) =     -366.20553803


--------------------------------------------------------------------------------------------------------




----------------------------------------- Iteration    1(  10)  ---------------------------------------


    POTLOK:  cpu time    0.4699: real time    0.9369
    SETDIJ:  cpu time    0.2170: real time    0.4347
     EDDAV:  cpu time  292.5075: real time  584.5320
       DOS:  cpu time    0.0200: real time    0.0412
    CHARGE:  cpu time    7.5349: real time   15.0467
    MIXING:  cpu time    0.1520: real time    0.3070
    --------------------------------------------
      LOOP:  cpu time  300.9223: real time  601.3410

 eigenvalue-minimisations  : 11272
 total energy-change (2. order) :-0.3315244E-02  (-0.9184432E-03)
 number of electron    1024.0008498 magnetization      39.0125403
 augmentation part      606.2532195 magnetization      33.7338096

 Broyden mixing:
  rms(total) = 0.21770E-01    rms(broyden)= 0.21767E-01
  rms(prec ) = 0.23035E-01
  weight for this iteration     100.00

 eigenvalues of (default mixing * dielectric matrix)
  average eigenvalue GAMMA=   1.1714
  2.3564  1.1215  1.1215  0.6287  0.6287

 Free energy of the ion-electron system (eV)
  ---------------------------------------------------
  alpha Z        PSCENC =     10788.19976491
  Ewald energy   TEWEN  =   -158176.33604464
  -Hartree energ DENC   =    -56678.15922202
  -exchange      EXHF   =         0.00000000
  -V(xc)+E(xc)   XCENC  =      5647.63074805
  PAW double counting   =    173160.83201743  -182245.12470955
  entropy T*S    EENTRO =        -0.27052486
  eigenvalues    EBANDS =    -16879.72291410
  atomic energy  EATOM  =    224016.65216645
  Solvation  Ediel_sol  =         0.00000000
  ---------------------------------------------------
  free energy    TOTEN  =      -366.29871834 eV

  energy without entropy =     -366.02819348  energy(sigma->0) =     -366.20854339


--------------------------------------------------------------------------------------------------------




----------------------------------------- Iteration    1(  11)  ---------------------------------------


    POTLOK:  cpu time    0.4289: real time    0.8704
    SETDIJ:  cpu time    0.2280: real time    0.4584
     EDDAV:  cpu time  296.1290: real time  591.7661
       DOS:  cpu time    0.2070: real time    0.4168
    CHARGE:  cpu time    7.2199: real time   14.4207
    MIXING:  cpu time    0.1610: real time    0.3281
    --------------------------------------------
      LOOP:  cpu time  304.3897: real time  608.3610

 eigenvalue-minimisations  : 11128
 total energy-change (2. order) :-0.8619573E-03  (-0.1579450E-03)
 number of electron    1024.0008498 magnetization      38.9494075
 augmentation part      606.2198890 magnetization      33.6289996

 Broyden mixing:
  rms(total) = 0.71703E-02    rms(broyden)= 0.71675E-02
  rms(prec ) = 0.77037E-02
  weight for this iteration     100.00

 eigenvalues of (default mixing * dielectric matrix)
  average eigenvalue GAMMA=   1.1393
  2.4017  1.2071  1.2071  0.7504  0.6347  0.6347

 Free energy of the ion-electron system (eV)
  ---------------------------------------------------
  alpha Z        PSCENC =     10788.19976491
  Ewald energy   TEWEN  =   -158176.33604464
  -Hartree energ DENC   =    -56680.72689589
  -exchange      EXHF   =         0.00000000
  -V(xc)+E(xc)   XCENC  =      5647.69494268
  PAW double counting   =    173255.59902559  -182339.29751429
  entropy T*S    EENTRO =        -0.27118036
  eigenvalues    EBANDS =    -16877.81384474
  atomic energy  EATOM  =    224016.65216645
  Solvation  Ediel_sol  =         0.00000000
  ---------------------------------------------------
  free energy    TOTEN  =      -366.29958030 eV

  energy without entropy =     -366.02839994  energy(sigma->0) =     -366.20918684


--------------------------------------------------------------------------------------------------------




----------------------------------------- Iteration    1(  12)  ---------------------------------------


    POTLOK:  cpu time    0.4489: real time    0.9087
    SETDIJ:  cpu time    0.2110: real time    0.4210
     EDDAV:  cpu time  273.9903: real time  547.5224
       DOS:  cpu time    0.0240: real time    0.0551
    CHARGE:  cpu time    7.5009: real time   14.9881
    MIXING:  cpu time    0.1430: real time    0.2892
    --------------------------------------------
      LOOP:  cpu time  282.3441: real time  564.2540

 eigenvalue-minimisations  : 10920
 total energy-change (2. order) :-0.1236505E-03  (-0.1804865E-04)
 number of electron    1024.0008498 magnetization      38.8910592
 augmentation part      606.2390837 magnetization      33.5776089

 Broyden mixing:
  rms(total) = 0.50689E-02    rms(broyden)= 0.50682E-02
  rms(prec ) = 0.56808E-02
  weight for this iteration     100.00

 eigenvalues of (default mixing * dielectric matrix)
  average eigenvalue GAMMA=   1.2354
  2.4812  1.6343  1.6343  0.9827  0.6501  0.6501  0.6152

 Free energy of the ion-electron system (eV)
  ---------------------------------------------------
  alpha Z        PSCENC =     10788.19976491
  Ewald energy   TEWEN  =   -158176.33604464
  -Hartree energ DENC   =    -56679.84475767
  -exchange      EXHF   =         0.00000000
  -V(xc)+E(xc)   XCENC  =      5647.65021429
  PAW double counting   =    173295.11789778  -182378.42711695
  entropy T*S    EENTRO =        -0.27201773
  eigenvalues    EBANDS =    -16879.03981039
  atomic energy  EATOM  =    224016.65216645
  Solvation  Ediel_sol  =         0.00000000
  ---------------------------------------------------
  free energy    TOTEN  =      -366.29970395 eV

  energy without entropy =     -366.02768621  energy(sigma->0) =     -366.20903137


--------------------------------------------------------------------------------------------------------




----------------------------------------- Iteration    1(  13)  ---------------------------------------


    POTLOK:  cpu time    0.4389: real time    0.8810
    SETDIJ:  cpu time    0.2250: real time    0.4598
     EDDAV:  cpu time  264.8247: real time  529.2129
       DOS:  cpu time    0.0910: real time    0.1818
    CHARGE:  cpu time    8.1738: real time   16.3350
    MIXING:  cpu time    0.0630: real time    0.1266
    --------------------------------------------
      LOOP:  cpu time  273.8384: real time  547.2705

 eigenvalue-minimisations  :  9944
 total energy-change (2. order) :-0.5532638E-06  (-0.1287000E-05)
 number of electron    1024.0008498 magnetization      38.8703096
 augmentation part      606.2411963 magnetization      33.5640041

 Broyden mixing:
  rms(total) = 0.24301E-02    rms(broyden)= 0.24299E-02
  rms(prec ) = 0.32454E-02
  weight for this iteration     100.00

 eigenvalues of (default mixing * dielectric matrix)
  average eigenvalue GAMMA=   1.2896
  2.4720  2.1892  1.8388  1.0112  0.6294  0.6294  0.7736  0.7736

 Free energy of the ion-electron system (eV)
  ---------------------------------------------------
  alpha Z        PSCENC =     10788.19976491
  Ewald energy   TEWEN  =   -158176.33604464
  -Hartree energ DENC   =    -56680.50558932
  -exchange      EXHF   =         0.00000000
  -V(xc)+E(xc)   XCENC  =      5647.66656756
  PAW double counting   =    173318.74139834  -182401.33842245
  entropy T*S    EENTRO =        -0.27228918
  eigenvalues    EBANDS =    -16879.10725617
  atomic energy  EATOM  =    224016.65216645
  Solvation  Ediel_sol  =         0.00000000
  ---------------------------------------------------
  free energy    TOTEN  =      -366.29970450 eV

  energy without entropy =     -366.02741532  energy(sigma->0) =     -366.20894144


--------------------------------------------------------------------------------------------------------




----------------------------------------- Iteration    1(  14)  ---------------------------------------


    POTLOK:  cpu time    0.4529: real time    0.9080
    SETDIJ:  cpu time    0.2050: real time    0.4127
     EDDAV:  cpu time  266.3605: real time  532.2901
       DOS:  cpu time    0.0940: real time    0.1888
    CHARGE:  cpu time    7.4869: real time   14.9605
    MIXING:  cpu time    0.0850: real time    0.1713
    --------------------------------------------
      LOOP:  cpu time  274.6932: real time  548.9744

 eigenvalue-minimisations  :  9584
 total energy-change (2. order) : 0.3246049E-04  (-0.1367651E-05)
 number of electron    1024.0008498 magnetization      38.8685239
 augmentation part      606.2338201 magnetization      33.5646909

 Broyden mixing:
  rms(total) = 0.38388E-03    rms(broyden)= 0.38323E-03
  rms(prec ) = 0.46706E-03
  weight for this iteration     100.00

 eigenvalues of (default mixing * dielectric matrix)
  average eigenvalue GAMMA=   1.2637
  2.5290  2.4704  1.7248  1.0383  0.8478  0.8478  0.6364  0.6364  0.6428

 Free energy of the ion-electron system (eV)
  ---------------------------------------------------
  alpha Z        PSCENC =     10788.19976491
  Ewald energy   TEWEN  =   -158176.33604464
  -Hartree energ DENC   =    -56681.54395938
  -exchange      EXHF   =         0.00000000
  -V(xc)+E(xc)   XCENC  =      5647.70280021
  PAW double counting   =    173325.85182966  -182407.99439154
  entropy T*S    EENTRO =        -0.27228049
  eigenvalues    EBANDS =    -16878.55955721
  atomic energy  EATOM  =    224016.65216645
  Solvation  Ediel_sol  =         0.00000000
  ---------------------------------------------------
  free energy    TOTEN  =      -366.29967204 eV

  energy without entropy =     -366.02739155  energy(sigma->0) =     -366.20891188


--------------------------------------------------------------------------------------------------------




----------------------------------------- Iteration    1(  15)  ---------------------------------------


    POTLOK:  cpu time    0.4529: real time    0.9148
    SETDIJ:  cpu time    0.0790: real time    0.1614
     EDDAV:  cpu time  194.9084: real time  389.4940
       DOS:  cpu time    0.0330: real time    0.0636
    CHARGE:  cpu time    7.6368: real time   15.2645
    MIXING:  cpu time    0.1980: real time    0.3972
    --------------------------------------------
      LOOP:  cpu time  203.3111: real time  406.3410

 eigenvalue-minimisations  :  5504
 total energy-change (2. order) : 0.3205874E-05  (-0.7363604E-07)
 number of electron    1024.0008498 magnetization      38.8691997
 augmentation part      606.2326145 magnetization      33.5653214

 Broyden mixing:
  rms(total) = 0.94306E-04    rms(broyden)= 0.94139E-04
  rms(prec ) = 0.95567E-04
  weight for this iteration     100.00

 eigenvalues of (default mixing * dielectric matrix)
  average eigenvalue GAMMA=   1.2337
  2.5924  2.4495  1.6614  1.1845  0.9128  0.9128  0.7281  0.6351  0.6351  0.6251

 Free energy of the ion-electron system (eV)
  ---------------------------------------------------
  alpha Z        PSCENC =     10788.19976491
  Ewald energy   TEWEN  =   -158176.33604464
  -Hartree energ DENC   =    -56681.67445616
  -exchange      EXHF   =         0.00000000
  -V(xc)+E(xc)   XCENC  =      5647.70731697
  PAW double counting   =    173326.60722690  -182408.70162682
  entropy T*S    EENTRO =        -0.27227591
  eigenvalues    EBANDS =    -16878.48174054
  atomic energy  EATOM  =    224016.65216645
  Solvation  Ediel_sol  =         0.00000000
  ---------------------------------------------------
  free energy    TOTEN  =      -366.29966884 eV

  energy without entropy =     -366.02739293  energy(sigma->0) =     -366.20891020


--------------------------------------------------------------------------------------------------------




----------------------------------------- Iteration    1(  16)  ---------------------------------------


    POTLOK:  cpu time    0.4799: real time    0.9470
    SETDIJ:  cpu time    0.2120: real time    0.4315
     EDDAV:  cpu time  193.6036: real time  386.8771
       DOS:  cpu time    0.0060: real time    0.0160
    --------------------------------------------
      LOOP:  cpu time  194.3225: real time  388.3142

 eigenvalue-minimisations  :  5472
 total energy-change (2. order) :-0.3665918E-06  (-0.1005562E-07)
 number of electron    1024.0008498 magnetization      38.8691997
 augmentation part      606.2326145 magnetization      33.5653214

 Free energy of the ion-electron system (eV)
  ---------------------------------------------------
  alpha Z        PSCENC =     10788.19976491
  Ewald energy   TEWEN  =   -158176.33604464
  -Hartree energ DENC   =    -56681.67132213
  -exchange      EXHF   =         0.00000000
  -V(xc)+E(xc)   XCENC  =      5647.70732612
  PAW double counting   =    173326.47846239  -182408.57348962
  entropy T*S    EENTRO =        -0.27227007
  eigenvalues    EBANDS =    -16878.48426261
  atomic energy  EATOM  =    224016.65216645
  Solvation  Ediel_sol  =         0.00000000
  ---------------------------------------------------
  free energy    TOTEN  =      -366.29966920 eV

  energy without entropy =     -366.02739913  energy(sigma->0) =     -366.20891251


--------------------------------------------------------------------------------------------------------




 average (electrostatic) potential at core
  the test charge radii are     0.8614
  (the norm of the test charge is              1.0000)
       1 -78.3905       2 -78.3905       3 -78.3905       4 -78.3905       5 -78.3905
       6 -78.3905       7 -78.3905       8 -78.3905       9 -78.3905      10 -78.3905
      11 -78.3905      12 -78.3905      13 -78.3905      14 -78.3905      15 -78.3905
      16 -78.3905      17 -78.3905      18 -78.3905      19 -78.3905      20 -78.3905
      21 -78.3905      22 -78.3905      23 -78.3905      24 -78.3905      25 -78.3905
      26 -78.3905      27 -78.3905      28 -78.3905      29 -78.3905      30 -78.3905
      31 -78.3905      32 -78.3905      33 -78.3905      34 -78.3905      35 -78.3905
      36 -78.3905      37 -78.3905      38 -78.3905      39 -78.3905      40 -78.3905
      41 -78.3905      42 -78.3905      43 -78.3905      44 -78.3905      45 -78.3905
      46 -78.3905      47 -78.3905      48 -78.3905      49 -78.3905      50 -78.3905
      51 -78.3905      52 -78.3905      53 -78.3905      54 -78.3905      55 -78.3905
      56 -78.3905      57 -78.3905      58 -78.3905      59 -78.3905      60 -78.3905
      61 -78.3905      62 -78.3905      63 -78.3905      64 -78.3905
 
 
 
 E-fermi :   8.9960     XC(G=0): -14.3349     alpha+bet :-16.2013


 spin component 1

 k-point     1 :       0.0000    0.0000    0.0000
  band No.  band energies     occupation 
      1     -55.2341      1.00000
      2     -55.2341      1.00000
      3     -55.2341      1.00000
      4     -55.2341      1.00000
      5     -55.2174      1.00000
      6     -55.2174      1.00000
      7     -55.2174      1.00000
      8     -55.1836      1.00000
      9     -55.1836      1.00000
     10     -55.1836      1.00000
     11     -55.1836      1.00000
     12     -55.1836      1.00000
     13     -55.1836      1.00000
     14     -55.1835      1.00000
     15     -55.1835      1.00000
     16     -55.1835      1.00000
     17     -55.1835      1.00000
     18     -55.1835      1.00000
     19     -55.1835      1.00000
     20     -55.1835      1.00000
     21     -55.1835      1.00000
     22     -55.1835      1.00000
     23     -55.1835      1.00000
     24     -55.1835      1.00000
     25     -55.1835      1.00000
     26     -55.1835      1.00000
     27     -55.1835      1.00000
     28     -55.1835      1.00000
     29     -55.1835      1.00000
     30     -55.1835      1.00000
     31     -55.1835      1.00000
     32     -55.1498      1.00000
     33     -55.1498      1.00000
     34     -55.1498      1.00000
     35     -55.1498      1.00000
     36     -55.1498      1.00000
     37     -55.1498      1.00000
     38     -55.1498      1.00000
     39     -55.1498      1.00000
     40     -55.1498      1.00000
     41     -55.1498      1.00000
     42     -55.1498      1.00000
     43     -55.1498      1.00000
     44     -55.1325      1.00000
     45     -55.1325      1.00000
     46     -55.1325      1.00000
     47     -55.1325      1.00000
     48     -55.1325      1.00000
     49     -55.1325      1.00000
     50     -55.1324      1.00000
     51     -55.1324      1.00000
     52     -55.1324      1.00000
     53     -55.1324      1.00000
     54     -55.1324      1.00000
     55     -55.1324      1.00000
     56     -55.0862      1.00000
     57     -55.0862      1.00000
     58     -55.0862      1.00000
     59     -55.0862      1.00000
     60     -55.0862      1.00000
     61     -55.0862      1.00000
     62     -55.0862      1.00000
     63     -55.0862      1.00000
     64     -55.0801      1.00000
     65     -55.0801      1.00000
     66     -55.0801      1.00000
     67     -55.0801      1.00000
     68     -55.0801      1.00000
     69     -55.0801      1.00000
     70     -55.0623      1.00000
     71     -55.0623      1.00000
     72     -55.0623      1.00000
     73     -55.0623      1.00000
     74     -55.0623      1.00000
     75     -55.0623      1.00000
     76     -55.0623      1.00000
     77     -55.0623      1.00000
     78     -55.0623      1.00000
     79     -55.0623      1.00000
     80     -55.0623      1.00000
     81     -55.0623      1.00000
     82     -55.0560      1.00000
     83     -55.0560      1.00000
     84     -55.0560      1.00000
     85     -55.0560      1.00000
     86     -55.0560      1.00000
     87     -55.0560      1.00000
     88     -55.0560      1.00000
     89     -55.0560      1.00000
     90     -55.0560      1.00000
     91     -55.0560      1.00000
     92     -55.0560      1.00000
     93     -55.0560      1.00000
     94     -55.0560      1.00000
     95     -55.0560      1.00000
     96     -55.0560      1.00000
     97     -55.0560      1.00000
     98     -55.0560      1.00000
     99     -55.0560      1.00000
    100     -55.0560      1.00000
    101     -55.0560      1.00000
    102     -55.0560      1.00000
    103     -55.0560      1.00000
    104     -55.0560      1.00000
    105     -55.0560      1.00000
    106     -55.0496      1.00000
    107     -55.0496      1.00000
    108     -55.0496      1.00000
    109     -55.0496      1.00000
    110     -55.0496      1.00000
    111     -55.0496      1.00000
    112     -55.0469      1.00000
    113     -55.0469      1.00000
    114     -55.0469      1.00000
    115     -55.0468      1.00000
    116     -55.0468      1.00000
    117     -55.0468      1.00000
    118     -55.0130      1.00000
    119     -55.0130      1.00000
    120     -55.0130      1.00000
    121     -55.0130      1.00000
    122     -55.0130      1.00000
    123     -55.0130      1.00000
    124     -55.0130      1.00000
    125     -55.0130      1.00000
    126     -55.0130      1.00000
    127     -55.0130      1.00000
    128     -55.0130      1.00000
    129     -55.0130      1.00000
    130     -55.0130      1.00000
    131     -55.0130      1.00000
    132     -55.0130      1.00000
    133     -55.0130      1.00000
    134     -55.0130      1.00000
    135     -55.0130      1.00000
    136     -55.0130      1.00000
    137     -55.0130      1.00000
    138     -55.0130      1.00000
    139     -55.0130      1.00000
    140     -55.0130      1.00000
    141     -55.0130      1.00000
    142     -54.9919      1.00000
    143     -54.9919      1.00000
    144     -54.9919      1.00000
    145     -54.9919      1.00000
    146     -54.9919      1.00000
    147     -54.9919      1.00000
    148     -54.9918      1.00000
    149     -54.9918      1.00000
    150     -54.9918      1.00000
    151     -54.9918      1.00000
    152     -54.9918      1.00000
    153     -54.9918      1.00000
    154     -54.9791      1.00000
    155     -54.9791      1.00000
    156     -54.9791      1.00000
    157     -54.9791      1.00000
    158     -54.9791      1.00000
    159     -54.9791      1.00000
    160     -54.9791      1.00000
    161     -54.9791      1.00000
    162     -54.9791      1.00000
    163     -54.9791      1.00000
    164     -54.9791      1.00000
    165     -54.9791      1.00000
    166     -54.9790      1.00000
    167     -54.9790      1.00000
    168     -54.9790      1.00000
    169     -54.9789      1.00000
    170     -54.9789      1.00000
    171     -54.9789      1.00000
    172     -54.9789      1.00000
    173     -54.9789      1.00000
    174     -54.9581      1.00000
    175     -54.9581      1.00000
    176     -54.9581      1.00000
    177     -54.9581      1.00000
    178     -54.9581      1.00000
    179     -54.9581      1.00000
    180     -54.9581      1.00000
    181     -54.9581      1.00000
    182     -54.9581      1.00000
    183     -54.9581      1.00000
    184     -54.9581      1.00000
    185     -54.9581      1.00000
    186     -54.9581      1.00000
    187     -54.9581      1.00000
    188     -54.9581      1.00000
    189     -54.9581      1.00000
    190     -54.9374      1.00000
    191     -54.9373      1.00000
    192     -54.9373      1.00000
    193      -0.6802      1.00000
    194       1.6776      1.00000
    195       1.6776      1.00000
    196       1.6777      1.00000
    197       1.6777      1.00000
    198       1.6777      1.00000
    199       1.6777      1.00000
    200       1.6777      1.00000
    201       1.6777      1.00000
    202       2.3573      1.00000
    203       2.3573      1.00000
    204       2.3573      1.00000
    205       2.3573      1.00000
    206       2.3573      1.00000
    207       2.3573      1.00000
    208       3.6434      1.00000
    209       3.6435      1.00000
    210       3.6435      1.00000
    211       3.6435      1.00000
    212       3.7717      1.00000
    213       3.7717      1.00000
    214       3.7717      1.00000
    215       4.3134      1.00000
    216       4.3134      1.00000
    217       4.3134      1.00000
    218       4.3472      1.00000
    219       4.3472      1.00000
    220       4.3472      1.00000
    221       4.3472      1.00000
    222       4.3472      1.00000
    223       4.3472      1.00000
    224       4.3472      1.00000
    225       4.3472      1.00000
    226       4.3472      1.00000
    227       4.3472      1.00000
    228       4.3472      1.00000
    229       4.3472      1.00000
    230       4.4430      1.00000
    231       4.4430      1.00000
    232       4.4430      1.00000
    233       4.4430      1.00000
    234       4.4430      1.00000
    235       4.4430      1.00000
    236       4.4431      1.00000
    237       4.4431      1.00000
    238       4.4431      1.00000
    239       4.4431      1.00000
    240       4.4431      1.00000
    241       4.4431      1.00000
    242       4.4431      1.00000
    243       4.4431      1.00000
    244       4.4431      1.00000
    245       4.4431      1.00000
    246       4.4431      1.00000
    247       4.4431      1.00000
    248       4.4431      1.00000
    249       4.4431      1.00000
    250       4.4431      1.00000
    251       4.4431      1.00000
    252       4.4431      1.00000
    253       4.4431      1.00000
    254       4.7598      1.00000
    255       4.7598      1.00000
    256       4.7598      1.00000
    257       4.7598      1.00000
    258       4.7598      1.00000
    259       4.7598      1.00000
    260       5.1431      1.00000
    261       5.1431      1.00000
    262       5.1431      1.00000
    263       5.1431      1.00000
    264       5.1431      1.00000
    265       5.1431      1.00000
    266       5.1431      1.00000
    267       5.1431      1.00000
    268       5.1431      1.00000
    269       5.1431      1.00000
    270       5.1431      1.00000
    271       5.1431      1.00000
    272       5.1431      1.00000
    273       5.1431      1.00000
    274       5.1431      1.00000
    275       5.1431      1.00000
    276       5.1431      1.00000
    277       5.1431      1.00000
[...]
      3.419250  3.419250  3.419250    -0.111207    0.076924   -0.000000  
      5.128875  5.128875  3.419250    -0.020093    0.059327   -0.082258  
      6.838500  6.838500  3.419250     0.103585   -0.067748   -0.089404  
      3.419250  1.709625  5.128875    -0.084105    0.057698   -0.041059  
      5.128875  3.419250  5.128875    -0.054997    0.111749   -0.113676  
      6.838500  5.128875  5.128875     0.125419   -0.071164   -0.119921  
      8.548125  6.838500  5.128875     0.096311   -0.125214   -0.047305  
      5.128875  1.709625  6.838500    -0.110197    0.118102   -0.046855  
      6.838500  3.419250  6.838500     0.008213    0.006838   -0.043459  
      8.548125  5.128875  6.838500     0.035843   -0.103051    0.030057  
     10.257750  6.838500  6.838500    -0.082567    0.008213    0.026661  
      0.000000  3.419250  3.419250     0.002764   -0.009634    0.086814  
      1.709625  5.128875  3.419250    -0.120914    0.117440    0.093960  
      3.419250  6.838500  3.419250    -0.029800    0.099843    0.011702  
      5.128875  8.548125  3.419250     0.093878   -0.027232    0.004556  
      1.709625  3.419250  5.128875    -0.060446    0.095277    0.016597  
      3.419250  5.128875  5.128875    -0.031338    0.149328   -0.056019  
      5.128875  6.838500  5.128875     0.149078   -0.033585   -0.062265  
      6.838500  8.548125  5.128875     0.119970   -0.087635    0.010352  
      3.419250  3.419250  6.838500    -0.004237    0.130102   -0.097078  
      5.128875  5.128875  6.838500     0.114173    0.018838   -0.093682  
      6.838500  6.838500  6.838500     0.141803   -0.091051   -0.020166  
      8.548125  8.548125  6.838500     0.023394    0.020213   -0.023562  
      5.128875  3.419250  8.548125     0.058974    0.025190   -0.026861  
      6.838500  5.128875  8.548125     0.024598   -0.013050    0.056297  
      8.548125  6.838500  8.548125    -0.037074    0.042377    0.053801  
     10.257750  8.548125  8.548125    -0.002698    0.080617   -0.029358  
      0.000000  5.128875  5.128875    -0.125419    0.071164    0.119921  
      1.709625  6.838500  5.128875    -0.096311    0.125214    0.047305  
      3.419250  8.548125  5.128875     0.084105   -0.057698    0.041059  
      5.128875 10.257750  5.128875     0.054997   -0.111749    0.113676  
      1.709625  5.128875  6.838500    -0.035843    0.103051   -0.030057  
      3.419250  6.838500  6.838500     0.082567   -0.008213   -0.026661  
      5.128875  8.548125  6.838500     0.110197   -0.118102    0.046855  
      6.838500 10.257750  6.838500    -0.008213   -0.006838    0.043459  
      3.419250  5.128875  8.548125     0.109669   -0.027439   -0.067721  
      5.128875  6.838500  8.548125     0.075292   -0.065679    0.015438  
      6.838500  8.548125  8.548125     0.013620   -0.010253    0.012942  
      8.548125 10.257750  8.548125     0.047996    0.027987   -0.070217  
      5.128875  5.128875 10.257750     0.020093   -0.059327    0.082258  
      6.838500  6.838500 10.257750    -0.103585    0.067748    0.089404  
      8.548125  8.548125 10.257750    -0.012471    0.050150    0.007146  
     10.257750 10.257750 10.257750     0.111207   -0.076924    0.000000  
 
 190 f/i=    0.000000 THz     0.000001 2PiTHz    0.000006 cm-1     0.000001 meV
             X         Y         Z           dx          dy          dz
      0.000000  0.000000  0.000000    -0.006196    0.124830    0.002030  
      1.709625  1.709625  0.000000    -0.006196    0.124830    0.002030  
      3.419250  3.419250  0.000000    -0.006196    0.124830    0.002030  
      5.128875  5.128875  0.000000    -0.006196    0.124830    0.002030  
      1.709625  0.000000  1.709625    -0.006196    0.124830    0.002030  
      3.419250  1.709625  1.709625    -0.006196    0.124830    0.002030  
      5.128875  3.419250  1.709625    -0.006196    0.124830    0.002030  
      6.838500  5.128875  1.709625    -0.006196    0.124830    0.002030  
      3.419250  0.000000  3.419250    -0.006196    0.124830    0.002030  
      5.128875  1.709625  3.419250    -0.006196    0.124830    0.002030  
      6.838500  3.419250  3.419250    -0.006196    0.124830    0.002030  
      8.548125  5.128875  3.419250    -0.006196    0.124830    0.002030  
      5.128875  0.000000  5.128875    -0.006196    0.124830    0.002030  
      6.838500  1.709625  5.128875    -0.006196    0.124830    0.002030  
      8.548125  3.419250  5.128875    -0.006196    0.124830    0.002030  
     10.257750  5.128875  5.128875    -0.006196    0.124830    0.002030  
      0.000000  1.709625  1.709625    -0.006196    0.124830    0.002030  
      1.709625  3.419250  1.709625    -0.006196    0.124830    0.002030  
      3.419250  5.128875  1.709625    -0.006196    0.124830    0.002030  
      5.128875  6.838500  1.709625    -0.006196    0.124830    0.002030  
      1.709625  1.709625  3.419250    -0.006196    0.124830    0.002030  
      3.419250  3.419250  3.419250    -0.006196    0.124830    0.002030  
      5.128875  5.128875  3.419250    -0.006196    0.124830    0.002030  
      6.838500  6.838500  3.419250    -0.006196    0.124830    0.002030  
      3.419250  1.709625  5.128875    -0.006196    0.124830    0.002030  
      5.128875  3.419250  5.128875    -0.006196    0.124830    0.002030  
      6.838500  5.128875  5.128875    -0.006196    0.124830    0.002030  
      8.548125  6.838500  5.128875    -0.006196    0.124830    0.002030  
      5.128875  1.709625  6.838500    -0.006196    0.124830    0.002030  
      6.838500  3.419250  6.838500    -0.006196    0.124830    0.002030  
      8.548125  5.128875  6.838500    -0.006196    0.124830    0.002030  
     10.257750  6.838500  6.838500    -0.006196    0.124830    0.002030  
      0.000000  3.419250  3.419250    -0.006196    0.124830    0.002030  
      1.709625  5.128875  3.419250    -0.006196    0.124830    0.002030  
      3.419250  6.838500  3.419250    -0.006196    0.124830    0.002030  
      5.128875  8.548125  3.419250    -0.006196    0.124830    0.002030  
      1.709625  3.419250  5.128875    -0.006196    0.124830    0.002030  
      3.419250  5.128875  5.128875    -0.006196    0.124830    0.002030  
      5.128875  6.838500  5.128875    -0.006196    0.124830    0.002030  
      6.838500  8.548125  5.128875    -0.006196    0.124830    0.002030  
      3.419250  3.419250  6.838500    -0.006196    0.124830    0.002030  
      5.128875  5.128875  6.838500    -0.006196    0.124830    0.002030  
      6.838500  6.838500  6.838500    -0.006196    0.124830    0.002030  
      8.548125  8.548125  6.838500    -0.006196    0.124830    0.002030  
      5.128875  3.419250  8.548125    -0.006196    0.124830    0.002030  
      6.838500  5.128875  8.548125    -0.006196    0.124830    0.002030  
      8.548125  6.838500  8.548125    -0.006196    0.124830    0.002030  
     10.257750  8.548125  8.548125    -0.006196    0.124830    0.002030  
      0.000000  5.128875  5.128875    -0.006196    0.124830    0.002030  
      1.709625  6.838500  5.128875    -0.006196    0.124830    0.002030  
      3.419250  8.548125  5.128875    -0.006196    0.124830    0.002030  
      5.128875 10.257750  5.128875    -0.006196    0.124830    0.002030  
      1.709625  5.128875  6.838500    -0.006196    0.124830    0.002030  
      3.419250  6.838500  6.838500    -0.006196    0.124830    0.002030  
      5.128875  8.548125  6.838500    -0.006196    0.124830    0.002030  
      6.838500 10.257750  6.838500    -0.006196    0.124830    0.002030  
      3.419250  5.128875  8.548125    -0.006196    0.124830    0.002030  
      5.128875  6.838500  8.548125    -0.006196    0.124830    0.002030  
      6.838500  8.548125  8.548125    -0.006196    0.124830    0.002030  
      8.548125 10.257750  8.548125    -0.006196    0.124830    0.002030  
      5.128875  5.128875 10.257750    -0.006196    0.124830    0.002030  
      6.838500  6.838500 10.257750    -0.006196    0.124830    0.002030  
      8.548125  8.548125 10.257750    -0.006196    0.124830    0.002030  
     10.257750 10.257750 10.257750    -0.006196    0.124830    0.002030  
 
 191 f/i=    0.000000 THz     0.000002 2PiTHz    0.000010 cm-1     0.000001 meV
             X         Y         Z           dx          dy          dz
      0.000000  0.000000  0.000000    -0.124846   -0.006195   -0.000105  
      1.709625  1.709625  0.000000    -0.124846   -0.006195   -0.000105  
      3.419250  3.419250  0.000000    -0.124846   -0.006195   -0.000105  
      5.128875  5.128875  0.000000    -0.124846   -0.006195   -0.000105  
      1.709625  0.000000  1.709625    -0.124846   -0.006195   -0.000105  
      3.419250  1.709625  1.709625    -0.124846   -0.006195   -0.000105  
      5.128875  3.419250  1.709625    -0.124846   -0.006195   -0.000105  
      6.838500  5.128875  1.709625    -0.124846   -0.006195   -0.000105  
      3.419250  0.000000  3.419250    -0.124846   -0.006195   -0.000105  
      5.128875  1.709625  3.419250    -0.124846   -0.006195   -0.000105  
      6.838500  3.419250  3.419250    -0.124846   -0.006195   -0.000105  
      8.548125  5.128875  3.419250    -0.124846   -0.006195   -0.000105  
      5.128875  0.000000  5.128875    -0.124846   -0.006195   -0.000105  
      6.838500  1.709625  5.128875    -0.124846   -0.006195   -0.000105  
      8.548125  3.419250  5.128875    -0.124846   -0.006195   -0.000105  
     10.257750  5.128875  5.128875    -0.124846   -0.006195   -0.000105  
      0.000000  1.709625  1.709625    -0.124846   -0.006195   -0.000105  
      1.709625  3.419250  1.709625    -0.124846   -0.006195   -0.000105  
      3.419250  5.128875  1.709625    -0.124846   -0.006195   -0.000105  
      5.128875  6.838500  1.709625    -0.124846   -0.006195   -0.000105  
      1.709625  1.709625  3.419250    -0.124846   -0.006195   -0.000105  
      3.419250  3.419250  3.419250    -0.124846   -0.006195   -0.000105  
      5.128875  5.128875  3.419250    -0.124846   -0.006195   -0.000105  
      6.838500  6.838500  3.419250    -0.124846   -0.006195   -0.000105  
      3.419250  1.709625  5.128875    -0.124846   -0.006195   -0.000105  
      5.128875  3.419250  5.128875    -0.124846   -0.006195   -0.000105  
      6.838500  5.128875  5.128875    -0.124846   -0.006195   -0.000105  
      8.548125  6.838500  5.128875    -0.124846   -0.006195   -0.000105  
      5.128875  1.709625  6.838500    -0.124846   -0.006195   -0.000105  
      6.838500  3.419250  6.838500    -0.124846   -0.006195   -0.000105  
      8.548125  5.128875  6.838500    -0.124846   -0.006195   -0.000105  
     10.257750  6.838500  6.838500    -0.124846   -0.006195   -0.000105  
      0.000000  3.419250  3.419250    -0.124846   -0.006195   -0.000105  
      1.709625  5.128875  3.419250    -0.124846   -0.006195   -0.000105  
      3.419250  6.838500  3.419250    -0.124846   -0.006195   -0.000105  
      5.128875  8.548125  3.419250    -0.124846   -0.006195   -0.000105  
      1.709625  3.419250  5.128875    -0.124846   -0.006195   -0.000105  
      3.419250  5.128875  5.128875    -0.124846   -0.006195   -0.000105  
      5.128875  6.838500  5.128875    -0.124846   -0.006195   -0.000105  
      6.838500  8.548125  5.128875    -0.124846   -0.006195   -0.000105  
      3.419250  3.419250  6.838500    -0.124846   -0.006195   -0.000105  
      5.128875  5.128875  6.838500    -0.124846   -0.006195   -0.000105  
      6.838500  6.838500  6.838500    -0.124846   -0.006195   -0.000105  
      8.548125  8.548125  6.838500    -0.124846   -0.006195   -0.000105  
      5.128875  3.419250  8.548125    -0.124846   -0.006195   -0.000105  
      6.838500  5.128875  8.548125    -0.124846   -0.006195   -0.000105  
      8.548125  6.838500  8.548125    -0.124846   -0.006195   -0.000105  
     10.257750  8.548125  8.548125    -0.124846   -0.006195   -0.000105  
      0.000000  5.128875  5.128875    -0.124846   -0.006195   -0.000105  
      1.709625  6.838500  5.128875    -0.124846   -0.006195   -0.000105  
      3.419250  8.548125  5.128875    -0.124846   -0.006195   -0.000105  
      5.128875 10.257750  5.128875    -0.124846   -0.006195   -0.000105  
      1.709625  5.128875  6.838500    -0.124846   -0.006195   -0.000105  
      3.419250  6.838500  6.838500    -0.124846   -0.006195   -0.000105  
      5.128875  8.548125  6.838500    -0.124846   -0.006195   -0.000105  
      6.838500 10.257750  6.838500    -0.124846   -0.006195   -0.000105  
      3.419250  5.128875  8.548125    -0.124846   -0.006195   -0.000105  
      5.128875  6.838500  8.548125    -0.124846   -0.006195   -0.000105  
      6.838500  8.548125  8.548125    -0.124846   -0.006195   -0.000105  
      8.548125 10.257750  8.548125    -0.124846   -0.006195   -0.000105  
      5.128875  5.128875 10.257750    -0.124846   -0.006195   -0.000105  
      6.838500  6.838500 10.257750    -0.124846   -0.006195   -0.000105  
      8.548125  8.548125 10.257750    -0.124846   -0.006195   -0.000105  
     10.257750 10.257750 10.257750    -0.124846   -0.006195   -0.000105  
 
 192 f/i=    0.000000 THz     0.000003 2PiTHz    0.000013 cm-1     0.000002 meV
             X         Y         Z           dx          dy          dz
      0.000000  0.000000  0.000000    -0.000004   -0.002032    0.124983  
      1.709625  1.709625  0.000000    -0.000004   -0.002032    0.124983  
      3.419250  3.419250  0.000000    -0.000004   -0.002032    0.124983  
      5.128875  5.128875  0.000000    -0.000004   -0.002032    0.124983  
      1.709625  0.000000  1.709625    -0.000004   -0.002032    0.124983  
      3.419250  1.709625  1.709625    -0.000004   -0.002032    0.124983  
      5.128875  3.419250  1.709625    -0.000004   -0.002032    0.124983  
      6.838500  5.128875  1.709625    -0.000004   -0.002032    0.124983  
      3.419250  0.000000  3.419250    -0.000004   -0.002032    0.124983  
      5.128875  1.709625  3.419250    -0.000004   -0.002032    0.124983  
      6.838500  3.419250  3.419250    -0.000004   -0.002032    0.124983  
      8.548125  5.128875  3.419250    -0.000004   -0.002032    0.124983  
      5.128875  0.000000  5.128875    -0.000004   -0.002032    0.124983  
      6.838500  1.709625  5.128875    -0.000004   -0.002032    0.124983  
      8.548125  3.419250  5.128875    -0.000004   -0.002032    0.124983  
     10.257750  5.128875  5.128875    -0.000004   -0.002032    0.124983  
      0.000000  1.709625  1.709625    -0.000004   -0.002032    0.124983  
      1.709625  3.419250  1.709625    -0.000004   -0.002032    0.124983  
      3.419250  5.128875  1.709625    -0.000004   -0.002032    0.124983  
      5.128875  6.838500  1.709625    -0.000004   -0.002032    0.124983  
      1.709625  1.709625  3.419250    -0.000004   -0.002032    0.124983  
      3.419250  3.419250  3.419250    -0.000004   -0.002032    0.124983  
      5.128875  5.128875  3.419250    -0.000004   -0.002032    0.124983  
      6.838500  6.838500  3.419250    -0.000004   -0.002032    0.124983  
      3.419250  1.709625  5.128875    -0.000004   -0.002032    0.124983  
      5.128875  3.419250  5.128875    -0.000004   -0.002032    0.124983  
      6.838500  5.128875  5.128875    -0.000004   -0.002032    0.124983  
      8.548125  6.838500  5.128875    -0.000004   -0.002032    0.124983  
      5.128875  1.709625  6.838500    -0.000004   -0.002032    0.124983  
      6.838500  3.419250  6.838500    -0.000004   -0.002032    0.124983  
      8.548125  5.128875  6.838500    -0.000004   -0.002032    0.124983  
     10.257750  6.838500  6.838500    -0.000004   -0.002032    0.124983  
      0.000000  3.419250  3.419250    -0.000004   -0.002032    0.124983  
      1.709625  5.128875  3.419250    -0.000004   -0.002032    0.124983  
      3.419250  6.838500  3.419250    -0.000004   -0.002032    0.124983  
      5.128875  8.548125  3.419250    -0.000004   -0.002032    0.124983  
      1.709625  3.419250  5.128875    -0.000004   -0.002032    0.124983  
      3.419250  5.128875  5.128875    -0.000004   -0.002032    0.124983  
      5.128875  6.838500  5.128875    -0.000004   -0.002032    0.124983  
      6.838500  8.548125  5.128875    -0.000004   -0.002032    0.124983  
      3.419250  3.419250  6.838500    -0.000004   -0.002032    0.124983  
      5.128875  5.128875  6.838500    -0.000004   -0.002032    0.124983  
      6.838500  6.838500  6.838500    -0.000004   -0.002032    0.124983  
      8.548125  8.548125  6.838500    -0.000004   -0.002032    0.124983  
      5.128875  3.419250  8.548125    -0.000004   -0.002032    0.124983  
      6.838500  5.128875  8.548125    -0.000004   -0.002032    0.124983  
      8.548125  6.838500  8.548125    -0.000004   -0.002032    0.124983  
     10.257750  8.548125  8.548125    -0.000004   -0.002032    0.124983  
      0.000000  5.128875  5.128875    -0.000004   -0.002032    0.124983  
      1.709625  6.838500  5.128875    -0.000004   -0.002032    0.124983  
      3.419250  8.548125  5.128875    -0.000004   -0.002032    0.124983  
      5.128875 10.257750  5.128875    -0.000004   -0.002032    0.124983  
      1.709625  5.128875  6.838500    -0.000004   -0.002032    0.124983  
      3.419250  6.838500  6.838500    -0.000004   -0.002032    0.124983  
      5.128875  8.548125  6.838500    -0.000004   -0.002032    0.124983  
      6.838500 10.257750  6.838500    -0.000004   -0.002032    0.124983  
      3.419250  5.128875  8.548125    -0.000004   -0.002032    0.124983  
      5.128875  6.838500  8.548125    -0.000004   -0.002032    0.124983  
      6.838500  8.548125  8.548125    -0.000004   -0.002032    0.124983  
      8.548125 10.257750  8.548125    -0.000004   -0.002032    0.124983  
      5.128875  5.128875 10.257750    -0.000004   -0.002032    0.124983  
      6.838500  6.838500 10.257750    -0.000004   -0.002032    0.124983  
      8.548125  8.548125 10.257750    -0.000004   -0.002032    0.124983  
     10.257750 10.257750 10.257750    -0.000004   -0.002032    0.124983  
 


--------------------------------------------------------------------------------------------------------



 ELASTIC MODULI IONIC CONTR (kBar)
 Direction    XX          YY          ZZ          XY          YZ          ZX
 --------------------------------------------------------------------------------
 XX          -0.0000     -0.0000     -0.0000      0.0000     -0.0000     -0.0000
 YY          -0.0000      0.0000     -0.0000      0.0000     -0.0000     -0.0000
 ZZ          -0.0000      0.0000      0.0000      0.0000      0.0000     -0.0000
 XY           0.0000      0.0000      0.0000     -0.0000     -0.0000      0.0000
 YZ          -0.0000     -0.0000      0.0000     -0.0000      0.0000      0.0000
 ZX          -0.0000     -0.0000     -0.0000      0.0000     -0.0000     -0.0000
 --------------------------------------------------------------------------------



--------------------------------------------------------------------------------------------------------


 writing wavefunctions
     LOOP+:  cpu time17918.1700: real time24350.7978
    4ORBIT:  cpu time    0.0010: real time    0.0000

 total amount of memory used by VASP on root node   264075. kBytes
========================================================================

   base      :      30000. kBytes
   nonl-proj :      23001. kBytes
   fftplans  :       7674. kBytes
   grid      :      40416. kBytes
   one-center:       1990. kBytes
   wavefun   :     160994. kBytes
 
  
  
 General timing and accounting informations for this job:
 ========================================================
  
                  Total CPU time used (sec):    17939.035
                            User time (sec):    16807.078
                          System time (sec):     1131.958
                         Elapsed time (sec):    24372.049
  
                   Maximum memory used (kb):      992396.
                   Average memory used (kb):           0.
  
                          Minor page faults:       113848
                          Major page faults:            0
                 Voluntary context switches:         1208
