<?xml version="1.0" encoding="ISO-8859-1"?>
<modeling>
 <generator>
  <i name="program" type="string">vasp </i>
  <i name="version" type="string">5.4.1  </i>
  <i name="subversion" type="string">05Feb16 (build Oct 12 2016 17:31:35) complex                          parallel </i>
  <i name="platform" type="string">IFC91_ompi </i>
  <i name="date" type="string">2020 09 08 </i>
  <i name="time" type="string">20:46:25 </i>
 </generator>
 <incar>
  <i type="string" name="SYSTEM"> phonon of Zr bcc - omiga</i>
  <i type="string" name="PREC">h</i>
  <i type="int" name="ISPIN">     2</i>
  <i type="int" name="IBRION">     8</i>
  <i name="EDIFF">      0.00000100</i>
  <i type="int" name="NSW">     1</i>
  <v name="MAGMOM">      1.00000000      1.00000000      1.00000000      1.00000000      1.00000000      1.00000000      1.00000000      1.00000000      1.00000000      1.00000000      1.00000000      1.00000000      1.00000000      1.00000000      1.00000000      1.00000000      1.00000000      1.00000000      1.00000000      1.00000000
      1.00000000      1.00000000      1.00000000      1.00000000      1.00000000      1.00000000      1.00000000      1.00000000      1.00000000      1.00000000      1.00000000      1.00000000      1.00000000      1.00000000      1.00000000      1.00000000      1.00000000      1.00000000      1.00000000      1.00000000
      1.00000000      1.00000000      1.00000000      1.00000000      1.00000000      1.00000000      1.00000000      1.00000000      1.00000000      1.00000000      1.00000000      1.00000000      1.00000000      1.00000000      1.00000000      1.00000000      1.00000000      1.00000000      1.00000000      1.00000000
      1.00000000      1.00000000      1.00000000      1.00000000</v>
  <i type="int" name="ISMEAR">     1</i>
  <i type="int" name="NWRITE">     0</i>
  <v type="int" name="KPOINT_BSE">    -1     0     0     0</v>
 </incar>
 <kpoints>
  <generation param="Gamma">
   <v type="int" name="divisions">       3        3        3 </v>
   <v name="usershift">      0.00000000       0.00000000       0.00000000 </v>
   <v name="genvec1">      0.33333333       0.00000000       0.00000000 </v>
   <v name="genvec2">      0.00000000       0.33333333       0.00000000 </v>
   <v name="genvec3">      0.00000000       0.00000000       0.33333333 </v>
   <v name="shift">      0.00000000       0.00000000       0.00000000 </v>
  </generation>
  <varray name="kpointlist" >
   <v>       0.00000000       0.00000000       0.00000000 </v>
   <v>       0.33333333       0.00000000       0.00000000 </v>
   <v>       0.33333333       0.33333333       0.00000000 </v>
   <v>      -0.33333333       0.33333333       0.00000000 </v>
  </varray>
  <varray name="weights" >
   <v>       0.03703704 </v>
   <v>       0.29629630 </v>
   <v>       0.22222222 </v>
   <v>       0.44444444 </v>
  </varray>
 </kpoints>
 <parameters>
  <separator name="general" >
   <i type="string" name="SYSTEM">phonon of Zr bcc - omiga</i>
   <i type="logical" name="LCOMPAT"> F  </i>
  </separator>
  <separator name="electronic" >
   <i type="string" name="PREC">h</i>
   <i name="ENMAX">    459.93125000</i>
   <i name="ENAUG">    703.44300000</i>
   <i name="EDIFF">      0.00000100</i>
   <i type="int" name="IALGO">    38</i>
   <i type="int" name="IWAVPR">    11</i>
   <i type="int" name="NBANDS">   648</i>
   <i name="NELECT">   1024.00000000</i>
   <i type="int" name="TURBO">     0</i>
   <i type="int" name="IRESTART">     0</i>
   <i type="int" name="NREBOOT">     0</i>
   <i type="int" name="NMIN">     0</i>
   <i name="EREF">      0.00000000</i>
   <separator name="electronic smearing" >
    <i type="int" name="ISMEAR">     1</i>
    <i name="SIGMA">      0.20000000</i>
    <i name="KSPACING">      0.50000000</i>
    <i type="logical" name="KGAMMA"> T  </i>
   </separator>
   <separator name="electronic projectors" >
    <i type="logical" name="LREAL"> F  </i>
    <v name="ROPT">      0.00000000</v>
    <i type="int" name="LMAXPAW">  -100</i>
    <i type="int" name="LMAXMIX">     2</i>
    <i type="logical" name="NLSPLINE"> F  </i>
   </separator>
   <separator name="electronic startup" >
    <i type="int" name="ISTART">     0</i>
    <i type="int" name="ICHARG">     2</i>
    <i type="int" name="INIWAV">     1</i>
   </separator>
   <separator name="electronic spin" >
    <i type="int" name="ISPIN">     2</i>
    <i type="logical" name="LNONCOLLINEAR"> F  </i>
    <v name="MAGMOM">      1.00000000      1.00000000      1.00000000      1.00000000      1.00000000      1.00000000      1.00000000      1.00000000      1.00000000      1.00000000      1.00000000      1.00000000      1.00000000      1.00000000      1.00000000      1.00000000      1.00000000      1.00000000      1.00000000      1.00000000
      1.00000000      1.00000000      1.00000000      1.00000000      1.00000000      1.00000000      1.00000000      1.00000000      1.00000000      1.00000000      1.00000000      1.00000000      1.00000000      1.00000000      1.00000000      1.00000000      1.00000000      1.00000000      1.00000000      1.00000000
      1.00000000      1.00000000      1.00000000      1.00000000      1.00000000      1.00000000      1.00000000      1.00000000      1.00000000      1.00000000      1.00000000      1.00000000      1.00000000      1.00000000      1.00000000      1.00000000      1.00000000      1.00000000      1.00000000      1.00000000
      1.00000000      1.00000000      1.00000000      1.00000000</v>
    <i name="NUPDOWN">     -1.00000000</i>
    <i type="logical" name="LSORBIT"> F  </i>
    <v name="SAXIS">      0.00000000      0.00000000      1.00000000</v>
    <i type="logical" name="LSPIRAL"> F  </i>
    <v name="QSPIRAL">      0.00000000      0.00000000      0.00000000</v>
    <i type="logical" name="LZEROZ"> F  </i>
   </separator>
   <separator name="electronic exchange-correlation" >
    <i type="logical" name="LASPH"> F  </i>
    <i type="logical" name="LMETAGGA"> F  </i>
   </separator>
   <separator name="electronic convergence" >
    <i type="int" name="NELM">    60</i>
    <i type="int" name="NELMDL">    -5</i>
    <i type="int" name="NELMIN">     2</i>
    <i name="ENINI">    459.93125000</i>
    <separator name="electronic convergence detail" >
     <i type="logical" name="LDIAG"> T  </i>
     <i type="logical" name="LSUBROT"> F  </i>
     <i name="WEIMIN">      0.00100000</i>
     <i name="EBREAK">      0.00000000</i>
     <i name="DEPER">      0.30000000</i>
     <i type="int" name="NRMM">     4</i>
     <i name="TIME">      0.40000000</i>
    </separator>
   </separator>
   <separator name="electronic mixer" >
    <i name="AMIX">      0.40000000</i>
    <i name="BMIX">      1.00000000</i>
    <i name="AMIN">      0.10000000</i>
    <i name="AMIX_MAG">      1.60000000</i>
    <i name="BMIX_MAG">      1.00000000</i>
    <separator name="electronic mixer details" >
     <i type="int" name="IMIX">     4</i>
     <i type="logical" name="MIXFIRST"> F  </i>
     <i type="int" name="MAXMIX">   -45</i>
     <i name="WC">    100.00000000</i>
     <i type="int" name="INIMIX">     1</i>
     <i type="int" name="MIXPRE">     1</i>
     <i type="int" name="MREMOVE">     5</i>
    </separator>
   </separator>
   <separator name="electronic dipolcorrection" >
    <i type="logical" name="LDIPOL"> F  </i>
    <i type="logical" name="LMONO"> F  </i>
    <i type="int" name="IDIPOL">     0</i>
    <i name="EPSILON">      1.00000000</i>
    <v name="DIPOL">   -100.00000000   -100.00000000   -100.00000000</v>
    <i name="EFIELD">      0.00000000</i>
   </separator>
  </separator>
  <separator name="grids" >
   <i type="int" name="NGX">    70</i>
   <i type="int" name="NGY">    70</i>
   <i type="int" name="NGZ">    70</i>
   <i type="int" name="NGXF">   112</i>
   <i type="int" name="NGYF">   112</i>
   <i type="int" name="NGZF">   112</i>
   <i type="logical" name="ADDGRID"> F  </i>
  </separator>
  <separator name="ionic" >
   <i type="int" name="NSW">     1</i>
   <i type="int" name="IBRION">     8</i>
   <i type="int" name="ISIF">     2</i>
   <i name="PSTRESS">      0.00000000</i>
   <i name="EDIFFG">      0.00001000</i>
   <i type="int" name="NFREE">     0</i>
   <i name="POTIM">      0.50000000</i>
   <i name="SMASS">     -3.00000000</i>
   <i name="SCALEE">      1.00000000</i>
  </separator>
  <separator name="ionic md" >
   <i name="TEBEG">      0.00010000</i>
   <i name="TEEND">      0.00010000</i>
   <i type="int" name="NBLOCK">     1</i>
   <i type="int" name="KBLOCK">     1</i>
   <i type="int" name="NPACO">   256</i>
   <i name="APACO">     16.00000000</i>
  </separator>
  <separator name="symmetry" >
   <i type="int" name="ISYM">     2</i>
   <i name="SYMPREC">      0.00001000</i>
  </separator>
  <separator name="dos" >
   <i type="logical" name="LORBIT"> F  </i>
   <v name="RWIGS">     -1.00000000</v>
   <i type="int" name="NEDOS">   301</i>
   <i name="EMIN">     10.00000000</i>
   <i name="EMAX">    -10.00000000</i>
   <i name="EFERMI">      0.00000000</i>
  </separator>
  <separator name="writing" >
   <i type="int" name="NWRITE">     0</i>
   <i type="logical" name="LWAVE"> T  </i>
   <i type="logical" name="LCHARG"> T  </i>
   <i type="logical" name="LPARD"> F  </i>
   <i type="logical" name="LVTOT"> F  </i>
   <i type="logical" name="LVHAR"> F  </i>
   <i type="logical" name="LELF"> F  </i>
   <i type="logical" name="LOPTICS"> F  </i>
   <v name="STM">      0.00000000      0.00000000      0.00000000      0.00000000      0.00000000      0.00000000      0.00000000</v>
  </separator>
  <separator name="performance" >
   <i type="int" name="NPAR">     8</i>
   <i type="int" name="NSIM">     4</i>
   <i type="int" name="NBLK">    -1</i>
   <i type="logical" name="LPLANE"> T  </i>
   <i type="logical" name="LSCALAPACK"> T  </i>
   <i type="logical" name="LSCAAWARE"> F  </i>
   <i type="logical" name="LSCALU"> F  </i>
   <i type="logical" name="LASYNC"> F  </i>
   <i type="logical" name="LORBITALREAL"> F  </i>
  </separator>
  <separator name="miscellaneous" >
   <i type="int" name="IDIOT">     3</i>
   <i type="logical" name="LMUSIC"> F  </i>
   <v name="POMASS">     58.69000000</v>
   <v name="DARWINR">      0.00000000</v>
   <v name="DARWINV">      1.00000000</v>
   <i type="logical" name="LCORR"> T  </i>
  </separator>
  <i type="logical" name="GGA_COMPAT"> T  </i>
  <i type="logical" name="LBERRY"> F  </i>
  <i type="int" name="ICORELEVEL">     0</i>
  <i type="logical" name="LDAU"> F  </i>
  <i type="int" name="I_CONSTRAINED_M">     0</i>
  <separator name="electronic exchange-correlation" >
   <i type="string" name="GGA">--</i>
   <i type="int" name="VOSKOWN">     0</i>
   <i type="logical" name="LHFCALC"> F  </i>
   <i type="string" name="PRECFOCK"></i>
   <i type="logical" name="LSYMGRAD"> F  </i>
   <i type="logical" name="LHFONE"> F  </i>
   <i type="logical" name="LRHFCALC"> F  </i>
   <i type="logical" name="LTHOMAS"> F  </i>
   <i type="logical" name="LMODELHF"> F  </i>
   <i name="ENCUT4O">     -1.00000000</i>
   <i type="int" name="EXXOEP">     0</i>
   <i type="int" name="FOURORBIT">     0</i>
   <i name="AEXX">      0.00000000</i>
   <i name="HFALPHA">      0.00000000</i>
   <i name="MCALPHA">      0.00000000</i>
   <i name="ALDAX">      1.00000000</i>
   <i name="AGGAX">      1.00000000</i>
   <i name="ALDAC">      1.00000000</i>
   <i name="AGGAC">      1.00000000</i>
   <i type="int" name="NKREDX">     1</i>
   <i type="int" name="NKREDY">     1</i>
   <i type="int" name="NKREDZ">     1</i>
   <i type="logical" name="SHIFTRED"> F  </i>
   <i type="logical" name="ODDONLY"> F  </i>
   <i type="logical" name="EVENONLY"> F  </i>
   <i type="int" name="LMAXFOCK">     0</i>
   <i type="int" name="NMAXFOCKAE">     0</i>
   <i type="logical" name="LFOCKAEDFT"> F  </i>
   <i name="HFSCREEN">      0.00000000</i>
   <i name="HFSCREENC">      0.00000000</i>
   <i type="int" name="NBANDSGWLOW">     0</i>
  </separator>
  <separator name="vdW DFT" >
   <i type="logical" name="LUSE_VDW"> F  </i>
   <i name="Zab_VDW">     -0.84910000</i>
   <i name="PARAM1">      0.12340000</i>
   <i name="PARAM2">      1.00000000</i>
   <i name="PARAM3">      0.00000000</i>
  </separator>
  <separator name="model GW" >
   <i type="int" name="MODEL_GW">     0</i>
   <i name="MODEL_EPS0">      5.99630653</i>
   <i name="MODEL_ALPHA">      1.00000000</i>
  </separator>
  <separator name="linear response parameters" >
   <i type="logical" name="LEPSILON"> F  </i>
   <i type="logical" name="LRPA"> F  </i>
   <i type="logical" name="LNABLA"> F  </i>
   <i type="logical" name="LVEL"> F  </i>
   <i type="int" name="KINTER">     0</i>
   <i name="CSHIFT">      0.10000000</i>
   <i name="OMEGAMAX">     -1.00000000</i>
   <i name="DEG_THRESHOLD">      0.00200000</i>
  </separator>
  <separator name="orbital magnetization" >
   <i type="logical" name="NUCIND"> F  </i>
   <v name="MAGPOS">      0.00000000      0.00000000      0.00000000</v>
   <i type="logical" name="LNICSALL"> T  </i>
   <i type="logical" name="ORBITALMAG"> F  </i>
   <i type="logical" name="LMAGBLOCH"> F  </i>
   <i type="logical" name="LCHIMAG"> F  </i>
   <i type="logical" name="LGAUGE"> T  </i>
   <i type="int" name="MAGATOM">     0</i>
   <v name="MAGDIPOL">      0.00000000      0.00000000      0.00000000</v>
   <v name="AVECCONST">      0.00000000      0.00000000      0.00000000</v>
  </separator>
  <separator name="response functions" >
   <i type="logical" name="LADDER"> F  </i>
   <i type="logical" name="LFXC"> F  </i>
   <i type="logical" name="LHARTREE"> T  </i>
   <i type="int" name="IBSE">     0</i>
   <v type="int" name="KPOINT">    -1     0     0     0</v>
   <i type="logical" name="LTCTE"> F  </i>
   <i type="logical" name="LTETE"> F  </i>
   <i type="logical" name="LTRIPLET"> F  </i>
   <i type="logical" name="LFXCEPS"> F  </i>
   <i type="logical" name="LFXHEG"> F  </i>
   <i type="int" name="NATURALO">     0</i>
   <i type="logical" name="L2ORDER"> F  </i>
   <i type="logical" name="LUSEW"> F  </i>
   <i name="ENCUTGW">     -2.00000000</i>
   <i name="ENCUTGWSOFT">     -2.00000000</i>
   <i name="ENCUTLF">     -1.00000000</i>
   <i type="int" name="LMAXMP2">    -1</i>
   <i name="SCISSOR">      0.00000000</i>
   <i type="int" name="NOMEGA">     0</i>
   <i type="int" name="NOMEGAR">     0</i>
   <i type="int" name="NBANDSGW">    -1</i>
   <i type="int" name="NBANDSO">    -1</i>
   <i type="int" name="NBANDSV">    -1</i>
   <i type="int" name="NELM">     1</i>
   <i type="int" name="NELMHF">     1</i>
   <i type="int" name="DIM">     3</i>
   <i type="int" name="ANTIRES">     0</i>
   <i name="OMEGAMAX">    -30.00000000</i>
   <i name="OMEGAMIN">    -30.00000000</i>
   <i name="OMEGATL">   -200.00000000</i>
   <i type="int" name="OMEGAGRID">     0</i>
   <i name="CSHIFT">     -0.10000000</i>
   <i type="logical" name="SELFENERGY"> F  </i>
   <i type="logical" name="LSPECTRAL"> F  </i>
   <i type="logical" name="LSPECTRALGW"> F  </i>
   <i type="logical" name="LSINGLES"> F  </i>
   <i type="logical" name="LFERMIGW"> F  </i>
   <i type="logical" name="ODDONLYGW"> F  </i>
   <i type="logical" name="EVENONLYGW"> F  </i>
   <i type="int" name="NKREDLFX">     1</i>
   <i type="int" name="NKREDLFY">     1</i>
   <i type="int" name="NKREDLFZ">     1</i>
   <i type="int" name="MAXMEM">  1800</i>
   <i type="int" name="TELESCOPE">     0</i>
   <i type="int" name="TAUPAR">     1</i>
   <i type="int" name="OMEGAPAR">    -1</i>
   <i name="LAMBDA">      1.00000000</i>
  </separator>
  <separator name="External order field" >
   <i name="OFIELD_KAPPA">      0.00000000</i>
   <v name="OFIELD_K">      0.00000000      0.00000000      0.00000000</v>
   <i name="OFIELD_Q6_NEAR">      0.00000000</i>
   <i name="OFIELD_Q6_FAR">      0.00000000</i>
   <i name="OFIELD_A">      0.00000000</i>
  </separator>
 </parameters>
 <atominfo>
  <atoms>      64 </atoms>
  <types>       1 </types>
  <array name="atoms" >
   <dimension dim="1">ion</dimension>
   <field type="string">element</field>
   <field type="int">atomtype</field>
   <set>
    <rc><c>Ni</c><c>   1</c></rc>
    <rc><c>Ni</c><c>   1</c></rc>
    <rc><c>Ni</c><c>   1</c></rc>
    <rc><c>Ni</c><c>   1</c></rc>
    <rc><c>Ni</c><c>   1</c></rc>
    <rc><c>Ni</c><c>   1</c></rc>
    <rc><c>Ni</c><c>   1</c></rc>
    <rc><c>Ni</c><c>   1</c></rc>
    <rc><c>Ni</c><c>   1</c></rc>
    <rc><c>Ni</c><c>   1</c></rc>
    <rc><c>Ni</c><c>   1</c></rc>
    <rc><c>Ni</c><c>   1</c></rc>
    <rc><c>Ni</c><c>   1</c></rc>
    <rc><c>Ni</c><c>   1</c></rc>
    <rc><c>Ni</c><c>   1</c></rc>
    <rc><c>Ni</c><c>   1</c></rc>
    <rc><c>Ni</c><c>   1</c></rc>
    <rc><c>Ni</c><c>   1</c></rc>
    <rc><c>Ni</c><c>   1</c></rc>
    <rc><c>Ni</c><c>   1</c></rc>
    <rc><c>Ni</c><c>   1</c></rc>
    <rc><c>Ni</c><c>   1</c></rc>
    <rc><c>Ni</c><c>   1</c></rc>
    <rc><c>Ni</c><c>   1</c></rc>
    <rc><c>Ni</c><c>   1</c></rc>
    <rc><c>Ni</c><c>   1</c></rc>
    <rc><c>Ni</c><c>   1</c></rc>
    <rc><c>Ni</c><c>   1</c></rc>
    <rc><c>Ni</c><c>   1</c></rc>
    <rc><c>Ni</c><c>   1</c></rc>
    <rc><c>Ni</c><c>   1</c></rc>
    <rc><c>Ni</c><c>   1</c></rc>
    <rc><c>Ni</c><c>   1</c></rc>
    <rc><c>Ni</c><c>   1</c></rc>
    <rc><c>Ni</c><c>   1</c></rc>
    <rc><c>Ni</c><c>   1</c></rc>
    <rc><c>Ni</c><c>   1</c></rc>
    <rc><c>Ni</c><c>   1</c></rc>
    <rc><c>Ni</c><c>   1</c></rc>
    <rc><c>Ni</c><c>   1</c></rc>
    <rc><c>Ni</c><c>   1</c></rc>
    <rc><c>Ni</c><c>   1</c></rc>
    <rc><c>Ni</c><c>   1</c></rc>
    <rc><c>Ni</c><c>   1</c></rc>
    <rc><c>Ni</c><c>   1</c></rc>
    <rc><c>Ni</c><c>   1</c></rc>
    <rc><c>Ni</c><c>   1</c></rc>
    <rc><c>Ni</c><c>   1</c></rc>
    <rc><c>Ni</c><c>   1</c></rc>
    <rc><c>Ni</c><c>   1</c></rc>
    <rc><c>Ni</c><c>   1</c></rc>
    <rc><c>Ni</c><c>   1</c></rc>
    <rc><c>Ni</c><c>   1</c></rc>
    <rc><c>Ni</c><c>   1</c></rc>
    <rc><c>Ni</c><c>   1</c></rc>
    <rc><c>Ni</c><c>   1</c></rc>
    <rc><c>Ni</c><c>   1</c></rc>
    <rc><c>Ni</c><c>   1</c></rc>
    <rc><c>Ni</c><c>   1</c></rc>
    <rc><c>Ni</c><c>   1</c></rc>
    <rc><c>Ni</c><c>   1</c></rc>
    <rc><c>Ni</c><c>   1</c></rc>
    <rc><c>Ni</c><c>   1</c></rc>
    <rc><c>Ni</c><c>   1</c></rc>
   </set>
  </array>
  <array name="atomtypes" >
   <dimension dim="1">type</dimension>
   <field type="int">atomspertype</field>
   <field type="string">element</field>
   <field>mass</field>
   <field>valence</field>
   <field type="string">pseudopotential</field>
   <set>
    <rc><c>  64</c><c>Ni</c><c>     58.69000000</c><c>     16.00000000</c><c> PAW_PBE Ni_pv 06Sep2000                </c></rc>
   </set>
  </array>
 </atominfo>
 <structure name="initialpos" >
  <crystal>
   <varray name="basis" >
    <v>       0.00000000       6.83850000       6.83850000 </v>
    <v>       6.83850000       0.00000000       6.83850000 </v>
    <v>       6.83850000       6.83850000       0.00000000 </v>
   </varray>
   <i name="volume">    639.60602993 </i>
   <varray name="rec_basis" >
    <v>      -0.07311545       0.07311545       0.07311545 </v>
    <v>       0.07311545      -0.07311545       0.07311545 </v>
    <v>       0.07311545       0.07311545      -0.07311545 </v>
   </varray>
  </crystal>
  <varray name="positions" >
   <v>       0.00000000       0.00000000       0.00000000 </v>
   <v>       0.00000000       0.00000000       0.25000000 </v>
   <v>       0.00000000       0.00000000       0.50000000 </v>
   <v>       0.00000000       0.00000000       0.75000000 </v>
   <v>       0.00000000       0.25000000       0.00000000 </v>
   <v>       0.00000000       0.25000000       0.25000000 </v>
   <v>       0.00000000       0.25000000       0.50000000 </v>
   <v>       0.00000000       0.25000000       0.75000000 </v>
   <v>       0.00000000       0.50000000       0.00000000 </v>
   <v>       0.00000000       0.50000000       0.25000000 </v>
   <v>       0.00000000       0.50000000       0.50000000 </v>
   <v>       0.00000000       0.50000000       0.75000000 </v>
   <v>       0.00000000       0.75000000       0.00000000 </v>
   <v>       0.00000000       0.75000000       0.25000000 </v>
   <v>       0.00000000       0.75000000       0.50000000 </v>
   <v>       0.00000000       0.75000000       0.75000000 </v>
   <v>       0.25000000       0.00000000       0.00000000 </v>
   <v>       0.25000000       0.00000000       0.25000000 </v>
   <v>       0.25000000       0.00000000       0.50000000 </v>
   <v>       0.25000000       0.00000000       0.75000000 </v>
   <v>       0.25000000       0.25000000       0.00000000 </v>
   <v>       0.25000000       0.25000000       0.25000000 </v>
   <v>       0.25000000       0.25000000       0.50000000 </v>
   <v>       0.25000000       0.25000000       0.75000000 </v>
   <v>       0.25000000       0.50000000       0.00000000 </v>
   <v>       0.25000000       0.50000000       0.25000000 </v>
   <v>       0.25000000       0.50000000       0.50000000 </v>
   <v>       0.25000000       0.50000000       0.75000000 </v>
   <v>       0.25000000       0.75000000       0.00000000 </v>
   <v>       0.25000000       0.75000000       0.25000000 </v>
   <v>       0.25000000       0.75000000       0.50000000 </v>
   <v>       0.25000000       0.75000000       0.75000000 </v>
   <v>       0.50000000       0.00000000       0.00000000 </v>
   <v>       0.50000000       0.00000000       0.25000000 </v>
   <v>       0.50000000       0.00000000       0.50000000 </v>
   <v>       0.50000000       0.00000000       0.75000000 </v>
   <v>       0.50000000       0.25000000       0.00000000 </v>
   <v>       0.50000000       0.25000000       0.25000000 </v>
   <v>       0.50000000       0.25000000       0.50000000 </v>
   <v>       0.50000000       0.25000000       0.75000000 </v>
   <v>       0.50000000       0.50000000       0.00000000 </v>
   <v>       0.50000000       0.50000000       0.25000000 </v>
   <v>       0.50000000       0.50000000       0.50000000 </v>
   <v>       0.50000000       0.50000000       0.75000000 </v>
   <v>       0.50000000       0.75000000       0.00000000 </v>
   <v>       0.50000000       0.75000000       0.25000000 </v>
   <v>       0.50000000       0.75000000       0.50000000 </v>
   <v>       0.50000000       0.75000000       0.75000000 </v>
   <v>       0.75000000       0.00000000       0.00000000 </v>
   <v>       0.75000000       0.00000000       0.25000000 </v>
   <v>       0.75000000       0.00000000       0.50000000 </v>
   <v>       0.75000000       0.00000000       0.75000000 </v>
   <v>       0.75000000       0.25000000       0.00000000 </v>
   <v>       0.75000000       0.25000000       0.25000000 </v>
   <v>       0.75000000       0.25000000       0.50000000 </v>
   <v>       0.75000000       0.25000000       0.75000000 </v>
   <v>       0.75000000       0.50000000       0.00000000 </v>
   <v>       0.75000000       0.50000000       0.25000000 </v>
   <v>       0.75000000       0.50000000       0.50000000 </v>
   <v>       0.75000000       0.50000000       0.75000000 </v>
   <v>       0.75000000       0.75000000       0.00000000 </v>
   <v>       0.75000000       0.75000000       0.25000000 </v>
   <v>       0.75000000       0.75000000       0.50000000 </v>
   <v>       0.75000000       0.75000000       0.75000000 </v>
  </varray>
 </structure>
 <calculation>
  <scstep>
   <time name="dav">  109.45  109.43</time>
   <time name="total">  109.73  109.71</time>
   <energy>
    <i name="alphaZ">  10788.19976491 </i>
    <i name="ewald">-158176.33604464 </i>
    <i name="hartreedc"> -59049.51858345 </i>
    <i name="XCdc">   5740.19685534 </i>
    <i name="pawpsdc"> 172361.15642774 </i>
    <i name="pawaedc">-181272.45834873 </i>
    <i name="eentropy">     -0.01148683 </i>
    <i name="bandstr">   1885.89350819 </i>
    <i name="atom"> 224016.65216645 </i>
    <i name="e_fr_energy">  16293.77425900 </i>
    <i name="e_wo_entrp">  16293.78574582 </i>
    <i name="e_0_energy">  16293.77808794 </i>
   </energy>
  </scstep>
  <scstep>
   <time name="dav">  100.82  100.74</time>
   <time name="total">  100.83  100.75</time>
   <energy>
    <i name="e_fr_energy">   1250.29973077 </i>
    <i name="e_wo_entrp">   1250.30311906 </i>
    <i name="e_0_energy">   1250.30086020 </i>
   </energy>
  </scstep>
  <scstep>
   <time name="dav">  101.31  101.22</time>
   <time name="total">  101.31  101.23</time>
   <energy>
    <i name="e_fr_energy">   -336.25018274 </i>
    <i name="e_wo_entrp">   -336.27954071 </i>
    <i name="e_0_energy">   -336.25996873 </i>
   </energy>
  </scstep>
  <scstep>
   <time name="dav">  105.61  105.53</time>
   <time name="total">  105.61  105.53</time>
   <energy>
    <i name="e_fr_energy">   -426.97110379 </i>
    <i name="e_wo_entrp">   -427.06869268 </i>
    <i name="e_0_energy">   -427.00363342 </i>
   </energy>
  </scstep>
  <scstep>
   <time name="dav">  105.47  105.38</time>
   <time name="total">  110.60  110.51</time>
   <energy>
    <i name="e_fr_energy">   -428.47265775 </i>
    <i name="e_wo_entrp">   -428.57121938 </i>
    <i name="e_0_energy">   -428.50551163 </i>
   </energy>
  </scstep>
  <scstep>
   <time name="dav">  104.41  104.32</time>
   <time name="total">  109.71  109.62</time>
   <energy>
    <i name="e_fr_energy">   -387.18867384 </i>
    <i name="e_wo_entrp">   -386.89914947 </i>
    <i name="e_0_energy">   -387.09216571 </i>
   </energy>
  </scstep>
  <scstep>
   <time name="dav">  266.63  523.99</time>
   <time name="total">  275.05  540.57</time>
   <energy>
    <i name="e_fr_energy">   -366.53965936 </i>
    <i name="e_wo_entrp">   -366.35909132 </i>
    <i name="e_0_energy">   -366.47947001 </i>
   </energy>
  </scstep>
  <scstep>
   <time name="dav">  284.06  567.66</time>
   <time name="total">  292.56  584.64</time>
   <energy>
    <i name="e_fr_energy">   -366.37840722 </i>
    <i name="e_wo_entrp">   -366.13337218 </i>
    <i name="e_0_energy">   -366.29672887 </i>
   </energy>
  </scstep>
  <scstep>
   <time name="dav">  310.08  619.65</time>
   <time name="total">  318.79  637.09</time>
   <energy>
    <i name="e_fr_energy">   -366.29540310 </i>
    <i name="e_wo_entrp">   -366.02580789 </i>
    <i name="e_0_energy">   -366.20553803 </i>
   </energy>
  </scstep>
  <scstep>
   <time name="dav">  292.51  584.53</time>
   <time name="total">  300.92  601.34</time>
   <energy>
    <i name="e_fr_energy">   -366.29871834 </i>
    <i name="e_wo_entrp">   -366.02819348 </i>
    <i name="e_0_energy">   -366.20854339 </i>
   </energy>
  </scstep>
  <scstep>
   <time name="dav">  296.13  591.77</time>
   <time name="total">  304.39  608.36</time>
   <energy>
    <i name="e_fr_energy">   -366.29958030 </i>
    <i name="e_wo_entrp">   -366.02839994 </i>
    <i name="e_0_energy">   -366.20918684 </i>
   </energy>
  </scstep>
  <scstep>
   <time name="dav">  273.99  547.52</time>
   <time name="total">  282.34  564.25</time>
   <energy>
    <i name="e_fr_energy">   -366.29970395 </i>
    <i name="e_wo_entrp">   -366.02768621 </i>
    <i name="e_0_energy">   -366.20903137 </i>
   </energy>
  </scstep>
  <scstep>
   <time name="dav">  264.82  529.21</time>
   <time name="total">  273.84  547.27</time>
   <energy>
    <i name="e_fr_energy">   -366.29970450 </i>
    <i name="e_wo_entrp">   -366.02741532 </i>
    <i name="e_0_energy">   -366.20894144 </i>
   </energy>
  </scstep>
  <scstep>
   <time name="dav">  266.36  532.29</time>
   <time name="total">  274.69  548.97</time>
   <energy>
    <i name="e_fr_energy">   -366.29967204 </i>
    <i name="e_wo_entrp">   -366.02739155 </i>
    <i name="e_0_energy">   -366.20891188 </i>
   </energy>
  </scstep>
  <scstep>
   <time name="dav">  194.91  389.49</time>
   <time name="total">  203.31  406.34</time>
   <energy>
    <i name="e_fr_energy">   -366.29966884 </i>
    <i name="e_wo_entrp">   -366.02739293 </i>
    <i name="e_0_energy">   -366.20891020 </i>
   </energy>
  </scstep>
  <scstep>
   <time name="dav">  193.60  386.88</time>
   <time name="total">  194.32  388.31</time>
   <energy>
    <i name="alphaZ">  10788.19976491 </i>
    <i name="ewald">-158176.33604464 </i>
    <i name="hartreedc"> -56681.67132213 </i>
    <i name="XCdc">   5647.70732612 </i>
    <i name="pawpsdc"> 173326.47846239 </i>
    <i name="pawaedc">-182408.57348962 </i>
    <i name="eentropy">     -0.27227007 </i>
    <i name="bandstr"> -16878.48426261 </i>
    <i name="atom"> 224016.65216645 </i>
    <i name="e_fr_energy">   -366.29966920 </i>
    <i name="e_wo_entrp">   -366.02739913 </i>
    <i name="e_0_energy">   -366.20891251 </i>
   </energy>
  </scstep>
  <structure>
   <crystal>
    <varray name="basis" >
     <v>       0.00000000       6.83850000       6.83850000 </v>
     <v>       6.83850000       0.00000000       6.83850000 </v>
     <v>       6.83850000       6.83850000       0.00000000 </v>
    </varray>
    <i name="volume">    639.60602993 </i>
    <varray name="rec_basis" >
     <v>      -0.07311545       0.07311545       0.07311545 </v>
     <v>       0.07311545      -0.07311545       0.07311545 </v>
     <v>       0.07311545       0.07311545      -0.07311545 </v>
    </varray>
   </crystal>
   <varray name="positions" >
    <v>       0.00000000       0.00000000       0.00000000 </v>
    <v>       0.00000000       0.00000000       0.25000000 </v>
    <v>       0.00000000       0.00000000       0.50000000 </v>
    <v>       0.00000000       0.00000000       0.75000000 </v>
    <v>       0.00000000       0.25000000       0.00000000 </v>
    <v>       0.00000000       0.25000000       0.25000000 </v>
    <v>       0.00000000       0.25000000       0.50000000 </v>
    <v>       0.00000000       0.25000000       0.75000000 </v>
    <v>       0.00000000       0.50000000       0.00000000 </v>
    <v>       0.00000000       0.50000000       0.25000000 </v>
    <v>       0.00000000       0.50000000       0.50000000 </v>
    <v>       0.00000000       0.50000000       0.75000000 </v>
    <v>       0.00000000       0.75000000       0.00000000 </v>
    <v>       0.00000000       0.75000000       0.25000000 </v>
    <v>       0.00000000       0.75000000       0.50000000 </v>
    <v>       0.00000000       0.75000000       0.75000000 </v>
    <v>       0.25000000       0.00000000       0.00000000 </v>
    <v>       0.25000000       0.00000000       0.25000000 </v>
    <v>       0.25000000       0.00000000       0.50000000 </v>
    <v>       0.25000000       0.00000000       0.75000000 </v>
    <v>       0.25000000       0.25000000       0.00000000 </v>
    <v>       0.25000000       0.25000000       0.25000000 </v>
    <v>       0.25000000       0.25000000       0.50000000 </v>
    <v>       0.25000000       0.25000000       0.75000000 </v>
    <v>       0.25000000       0.50000000       0.00000000 </v>
    <v>       0.25000000       0.50000000       0.25000000 </v>
    <v>       0.25000000       0.50000000       0.50000000 </v>
    <v>       0.25000000       0.50000000       0.75000000 </v>
    <v>       0.25000000       0.75000000       0.00000000 </v>
    <v>       0.25000000       0.75000000       0.25000000 </v>
    <v>       0.25000000       0.75000000       0.50000000 </v>
    <v>       0.25000000       0.75000000       0.75000000 </v>
    <v>       0.50000000       0.00000000       0.00000000 </v>
    <v>       0.50000000       0.00000000       0.25000000 </v>
    <v>       0.50000000       0.00000000       0.50000000 </v>
    <v>       0.50000000       0.00000000       0.75000000 </v>
    <v>       0.50000000       0.25000000       0.00000000 </v>
    <v>       0.50000000       0.25000000       0.25000000 </v>
    <v>       0.50000000       0.25000000       0.50000000 </v>
    <v>       0.50000000       0.25000000       0.75000000 </v>
    <v>       0.50000000       0.50000000       0.00000000 </v>
    <v>       0.50000000       0.50000000       0.25000000 </v>
    <v>       0.50000000       0.50000000       0.50000000 </v>
    <v>       0.50000000       0.50000000       0.75000000 </v>
    <v>       0.50000000       0.75000000       0.00000000 </v>
    <v>       0.50000000       0.75000000       0.25000000 </v>
    <v>       0.50000000       0.75000000       0.50000000 </v>
    <v>       0.50000000       0.75000000       0.75000000 </v>
    <v>       0.75000000       0.00000000       0.00000000 </v>
    <v>       0.75000000       0.00000000       0.25000000 </v>
    <v>       0.75000000       0.00000000       0.50000000 </v>
    <v>       0.75000000       0.00000000       0.75000000 </v>
    <v>       0.75000000       0.25000000       0.00000000 </v>
    <v>       0.75000000       0.25000000       0.25000000 </v>
    <v>       0.75000000       0.25000000       0.50000000 </v>
    <v>       0.75000000       0.25000000       0.75000000 </v>
    <v>       0.75000000       0.50000000       0.00000000 </v>
    <v>       0.75000000       0.50000000       0.25000000 </v>
    <v>       0.75000000       0.50000000       0.50000000 </v>
    <v>       0.75000000       0.50000000       0.75000000 </v>
    <v>       0.75000000       0.75000000       0.00000000 </v>
    <v>       0.75000000       0.75000000       0.25000000 </v>
    <v>       0.75000000       0.75000000       0.50000000 </v>
    <v>       0.75000000       0.75000000       0.75000000 </v>
   </varray>
  </structure>
  <varray name="forces" >
   <v>       0.00000000       0.00000000       0.00000000 </v>
   <v>       0.00000000      -0.00000000       0.00000000 </v>
   <v>       0.00000000       0.00000000      -0.00000000 </v>
   <v>       0.00000000       0.00000000      -0.00000000 </v>
   <v>      -0.00000000       0.00000000       0.00000000 </v>
   <v>      -0.00000000      -0.00000000       0.00000000 </v>
   <v>       0.00000000       0.00000000       0.00000000 </v>
   <v>       0.00000000       0.00000000      -0.00000000 </v>
   <v>      -0.00000000      -0.00000000       0.00000000 </v>
   <v>      -0.00000000      -0.00000000       0.00000000 </v>
   <v>       0.00000000       0.00000000      -0.00000000 </v>
   <v>       0.00000000      -0.00000000      -0.00000000 </v>
   <v>      -0.00000000       0.00000000       0.00000000 </v>
   <v>      -0.00000000      -0.00000000       0.00000000 </v>
   <v>       0.00000000       0.00000000      -0.00000000 </v>
   <v>      -0.00000000       0.00000000       0.00000000 </v>
   <v>      -0.00000000       0.00000000      -0.00000000 </v>
   <v>      -0.00000000      -0.00000000      -0.00000000 </v>
   <v>       0.00000000       0.00000000       0.00000000 </v>
   <v>       0.00000000      -0.00000000      -0.00000000 </v>
   <v>       0.00000000       0.00000000       0.00000000 </v>
   <v>      -0.00000000      -0.00000000       0.00000000 </v>
   <v>       0.00000000       0.00000000       0.00000000 </v>
   <v>       0.00000000       0.00000000       0.00000000 </v>
   <v>      -0.00000000      -0.00000000       0.00000000 </v>
   <v>      -0.00000000      -0.00000000       0.00000000 </v>
   <v>       0.00000000       0.00000000      -0.00000000 </v>
   <v>      -0.00000000      -0.00000000      -0.00000000 </v>
   <v>      -0.00000000      -0.00000000      -0.00000000 </v>
   <v>      -0.00000000      -0.00000000       0.00000000 </v>
   <v>       0.00000000       0.00000000      -0.00000000 </v>
   <v>      -0.00000000       0.00000000      -0.00000000 </v>
   <v>       0.00000000      -0.00000000      -0.00000000 </v>
   <v>      -0.00000000      -0.00000000       0.00000000 </v>
   <v>       0.00000000       0.00000000      -0.00000000 </v>
   <v>       0.00000000      -0.00000000      -0.00000000 </v>
   <v>       0.00000000      -0.00000000       0.00000000 </v>
   <v>      -0.00000000      -0.00000000       0.00000000 </v>
   <v>       0.00000000       0.00000000       0.00000000 </v>
   <v>       0.00000000       0.00000000      -0.00000000 </v>
   <v>      -0.00000000      -0.00000000       0.00000000 </v>
   <v>      -0.00000000      -0.00000000       0.00000000 </v>
   <v>       0.00000000       0.00000000      -0.00000000 </v>
   <v>      -0.00000000      -0.00000000      -0.00000000 </v>
   <v>      -0.00000000       0.00000000       0.00000000 </v>
   <v>      -0.00000000      -0.00000000      -0.00000000 </v>
   <v>      -0.00000000       0.00000000       0.00000000 </v>
   <v>       0.00000000       0.00000000       0.00000000 </v>
   <v>      -0.00000000      -0.00000000      -0.00000000 </v>
   <v>      -0.00000000      -0.00000000       0.00000000 </v>
   <v>       0.00000000       0.00000000      -0.00000000 </v>
   <v>       0.00000000      -0.00000000      -0.00000000 </v>
   <v>       0.00000000      -0.00000000       0.00000000 </v>
   <v>      -0.00000000      -0.00000000       0.00000000 </v>
   <v>       0.00000000       0.00000000      -0.00000000 </v>
   <v>       0.00000000       0.00000000       0.00000000 </v>
   <v>      -0.00000000      -0.00000000       0.00000000 </v>
   <v>      -0.00000000      -0.00000000      -0.00000000 </v>
   <v>       0.00000000       0.00000000      -0.00000000 </v>
   <v>       0.00000000      -0.00000000      -0.00000000 </v>
   <v>      -0.00000000       0.00000000      -0.00000000 </v>
   <v>      -0.00000000      -0.00000000       0.00000000 </v>
   <v>       0.00000000       0.00000000      -0.00000000 </v>
   <v>      -0.00000000      -0.00000000      -0.00000000 </v>
  </varray>
  <varray name="stress" >
   <v>     206.96554397      -0.00000000       0.00000000 </v>
   <v>       0.00000000     206.96554397      -0.00000000 </v>
   <v>       0.00000000       0.00000000     206.96554397 </v>
  </varray>
  <energy>
   <i name="e_fr_energy">   -366.29966920 </i>
   <i name="e_wo_entrp">   -366.20891251 </i>
   <i name="e_0_energy">     -0.27227007 </i>
  </energy>
  <kpoints>
   <generation param="Gamma">
    <v type="int" name="divisions">       3        3        3 </v>
    <v name="usershift">      0.00000000       0.00000000       0.00000000 </v>
    <v name="genvec1">      0.33333333       0.00000000       0.00000000 </v>
    <v name="genvec2">      0.00000000       0.33333333       0.00000000 </v>
    <v name="genvec3">      0.00000000       0.00000000       0.33333333 </v>
    <v name="shift">      0.00000000       0.00000000       0.00000000 </v>
   </generation>
   <varray name="kpointlist" >
    <v>       0.00000000       0.00000000       0.00000000 </v>
    <v>       0.33333333       0.00000000       0.00000000 </v>
    <v>       0.33333333       0.33333333       0.00000000 </v>
    <v>      -0.33333333       0.33333333       0.00000000 </v>
    <v>       0.00000000       0.33333333       0.33333333 </v>
    <v>      -0.33333333       0.33333333       0.33333333 </v>
   </varray>
   <varray name="weights" >
    <v>       0.03703704 </v>
    <v>       0.29629630 </v>
    <v>       0.14814815 </v>
    <v>       0.29629630 </v>
    <v>       0.07407407 </v>
    <v>       0.14814815 </v>
   </varray>
  </kpoints>
  <scstep>
   <time name="total">  316.35  632.15</time>
   <energy>
    <i name="e_fr_energy">  -3376.83601750 </i>
    <i name="e_wo_entrp">  -3376.83601734 </i>
    <i name="e_0_energy">  -3376.83601745 </i>
   </energy>
  </scstep>
  <scstep>
   <time name="total">  408.50  816.35</time>
   <energy>
    <i name="e_fr_energy">  -4037.65921991 </i>
    <i name="e_wo_entrp">  -4037.65928858 </i>
    <i name="e_0_energy">  -4037.65924280 </i>
   </energy>
  </scstep>
  <scstep>
   <time name="total">  388.70  776.76</time>
   <energy>
    <i name="e_fr_energy">  -4038.99989570 </i>
    <i name="e_wo_entrp">  -4038.99990907 </i>
    <i name="e_0_energy">  -4038.99990015 </i>
   </energy>
  </scstep>
  <scstep>
   <time name="total">  320.44  640.37</time>
   <energy>
    <i name="e_fr_energy">  -4035.24840359 </i>
    <i name="e_wo_entrp">  -4035.24848200 </i>
    <i name="e_0_energy">  -4035.24842972 </i>
   </energy>
  </scstep>
  <scstep>
   <time name="total">  321.84  643.15</time>
   <energy>
    <i name="e_fr_energy">  -4037.34425924 </i>
    <i name="e_wo_entrp">  -4037.34434474 </i>
    <i name="e_0_energy">  -4037.34428774 </i>
   </energy>
  </scstep>
  <scstep>
   <time name="total">  342.51  684.47</time>
   <energy>
    <i name="e_fr_energy">  -4034.71757153 </i>
    <i name="e_wo_entrp">  -4034.71762817 </i>
    <i name="e_0_energy">  -4034.71759041 </i>
   </energy>
  </scstep>
  <scstep>
   <time name="total">  342.26  683.95</time>
   <energy>
    <i name="e_fr_energy">  -4034.78196128 </i>
    <i name="e_wo_entrp">  -4034.78202707 </i>
    <i name="e_0_energy">  -4034.78198321 </i>
   </energy>
  </scstep>
  <scstep>
   <time name="total">  289.65  578.83</time>
   <energy>
    <i name="e_fr_energy">  -4033.95022270 </i>
    <i name="e_wo_entrp">  -4033.95028261 </i>
    <i name="e_0_energy">  -4033.95024267 </i>
   </energy>
  </scstep>
  <scstep>
   <time name="total">  546.18  615.66</time>
   <energy>
    <i name="e_fr_energy">  -4033.98914543 </i>
    <i name="e_wo_entrp">  -4033.98920588 </i>
    <i name="e_0_energy">  -4033.98916558 </i>
   </energy>
  </scstep>
  <scstep>
   <time name="total">  680.65  680.34</time>
   <energy>
    <i name="e_fr_energy">  -4033.46535626 </i>
    <i name="e_wo_entrp">  -4033.46541762 </i>
    <i name="e_0_energy">  -4033.46537671 </i>
   </energy>
  </scstep>
  <scstep>
   <time name="total">  671.33  670.89</time>
   <energy>
    <i name="e_fr_energy">  -4033.77983586 </i>
    <i name="e_wo_entrp">  -4033.77989740 </i>
    <i name="e_0_energy">  -4033.77985637 </i>
   </energy>
  </scstep>
  <scstep>
   <time name="total">  660.35  660.36</time>
   <energy>
    <i name="e_fr_energy">  -4033.47707944 </i>
    <i name="e_wo_entrp">  -4033.47714083 </i>
    <i name="e_0_energy">  -4033.47709991 </i>
   </energy>
  </scstep>
  <scstep>
   <time name="total">  661.52  661.33</time>
   <energy>
    <i name="e_fr_energy">  -4033.53726960 </i>
    <i name="e_wo_entrp">  -4033.53733101 </i>
    <i name="e_0_energy">  -4033.53729007 </i>
   </energy>
  </scstep>
  <scstep>
   <time name="total">  730.22  730.03</time>
   <energy>
    <i name="e_fr_energy">  -4033.51232674 </i>
    <i name="e_wo_entrp">  -4033.51238818 </i>
    <i name="e_0_energy">  -4033.51234722 </i>
   </energy>
  </scstep>
  <scstep>
   <time name="total">  760.92  761.15</time>
   <energy>
    <i name="e_fr_energy">  -4033.48164703 </i>
    <i name="e_wo_entrp">  -4033.48170827 </i>
    <i name="e_0_energy">  -4033.48166744 </i>
   </energy>
  </scstep>
  <scstep>
   <time name="total">  796.90  796.72</time>
   <energy>
    <i name="e_fr_energy">  -4033.47913329 </i>
    <i name="e_wo_entrp">  -4033.47919446 </i>
    <i name="e_0_energy">  -4033.47915368 </i>
   </energy>
  </scstep>
  <scstep>
   <time name="total">  804.37  806.27</time>
   <energy>
    <i name="e_fr_energy">  -4033.48351949 </i>
    <i name="e_wo_entrp">  -4033.48358072 </i>
    <i name="e_0_energy">  -4033.48353990 </i>
   </energy>
  </scstep>
  <scstep>
   <time name="total">  846.96  846.42</time>
   <energy>
    <i name="e_fr_energy">  -4033.47853091 </i>
    <i name="e_wo_entrp">  -4033.47859212 </i>
    <i name="e_0_energy">  -4033.47855131 </i>
   </energy>
  </scstep>
  <scstep>
   <time name="total">  835.17  834.78</time>
   <energy>
    <i name="e_fr_energy">  -4033.48367827 </i>
    <i name="e_wo_entrp">  -4033.48373952 </i>
    <i name="e_0_energy">  -4033.48369869 </i>
   </energy>
  </scstep>
  <kpoints>
   <generation param="Gamma">
    <v type="int" name="divisions">       3        3        3 </v>
    <v name="usershift">      0.00000000       0.00000000       0.00000000 </v>
    <v name="genvec1">      0.33333333       0.00000000       0.00000000 </v>
    <v name="genvec2">      0.00000000       0.33333333       0.00000000 </v>
    <v name="genvec3">      0.00000000       0.00000000       0.33333333 </v>
    <v name="shift">      0.00000000       0.00000000       0.00000000 </v>
   </generation>
   <varray name="kpointlist" >
    <v>       0.00000000       0.00000000       0.00000000 </v>
    <v>       0.33333333       0.00000000       0.00000000 </v>
    <v>       0.33333333       0.33333333       0.00000000 </v>
    <v>      -0.33333333       0.33333333       0.00000000 </v>
   </varray>
   <varray name="weights" >
    <v>       0.03703704 </v>
    <v>       0.29629630 </v>
    <v>       0.22222222 </v>
    <v>       0.44444444 </v>
   </varray>
  </kpoints>
  <dynmat>
   <varray name="hessian" >
    <v>      -0.23132054       0.00000000       0.00000000       0.02677260       0.03111238      -0.00000000       0.00023213      -0.00011805      -0.00000000       0.02677260       0.03111238       0.00000000       0.02677260       0.00000000       0.03111238       0.00165009       0.00099450       0.00099450       0.00033661       0.00099450      -0.00036525      -0.00167567       0.00000000       0.00000000       0.00023213       0.00000000      -0.00011805       0.00033661      -0.00036525       0.00099450       0.00005933      -0.00000000       0.00000000       0.00033661      -0.00036525       0.00099450       0.02677260       0.00000000       0.03111238      -0.00167567       0.00000000      -0.00000000       0.00033661       0.00099450      -0.00036525       0.00165009       0.00099450       0.00099450      -0.00167567       0.00000000       0.00000000       0.00033661       0.00099450       0.00036525       0.00165009       0.00099450      -0.00099450       0.02677260       0.00000000      -0.03111238       0.00033661       0.00036525       0.00099450       0.00040762       0.00000000      -0.00000000       0.00033661       0.00036525      -0.00099450      -0.00065952       0.00000000       0.00000000       0.00165009      -0.00099450       0.00099450       0.00033661      -0.00099450       0.00036525      -0.00031198       0.00000000       0.00000000       0.00032926       0.00000000       0.00000403       0.02677260      -0.03111238       0.00000000      -0.00065952      -0.00000000      -0.00000000       0.00032926       0.00000403       0.00000000       0.00275608       0.00000000      -0.00000000       0.00005933       0.00000000      -0.00000000       0.00033661      -0.00036525      -0.00099450       0.00023213      -0.00000000       0.00011805       0.00033661      -0.00036525      -0.00099450       0.00033661      -0.00099450      -0.00036525       0.00165009      -0.00099450      -0.00099450       0.00032926       0.00000000      -0.00000403      -0.00031198      -0.00000000      -0.00000000       0.00023213       0.00011805      -0.00000000       0.00032926      -0.00000403       0.00000000      -0.00086665       0.00000000      -0.00000000       0.00032926      -0.00000403       0.00000000       0.00033661      -0.00099450      -0.00036525      -0.00031198       0.00000000      -0.00000000       0.00032926      -0.00000000      -0.00000403       0.00165009      -0.00099450      -0.00099450      -0.00167567       0.00000000      -0.00000000       0.02677260      -0.00000000      -0.03111238       0.00165009       0.00099450      -0.00099450       0.00033661       0.00099450       0.00036525       0.02677260      -0.03111238      -0.00000000       0.00275608       0.00000000      -0.00000000       0.00032926       0.00000403       0.00000000      -0.00065952      -0.00000000      -0.00000000       0.00165009      -0.00099450       0.00099450       0.00032926       0.00000000       0.00000403      -0.00031198       0.00000000      -0.00000000       0.00033661      -0.00099450       0.00036525       0.00033661       0.00036525       0.00099450      -0.00065952       0.00000000       0.00000000       0.00033661       0.00036525      -0.00099450       0.00040762       0.00000000      -0.00000000 </v>
    <v>       0.00000000      -0.23132054       0.00000000       0.03111238       0.02677260      -0.00000000      -0.00011805       0.00023213      -0.00000000       0.03111238       0.02677260       0.00000000       0.00000000      -0.00167567      -0.00000000       0.00099450       0.00033661       0.00036525       0.00099450       0.00165009      -0.00099450       0.00000000       0.02677260      -0.03111238       0.00000000       0.00005933      -0.00000000      -0.00036525       0.00033661      -0.00099450      -0.00000000       0.00023213       0.00011805      -0.00036525       0.00033661      -0.00099450       0.00000000      -0.00167567      -0.00000000       0.00000000       0.02677260      -0.03111238       0.00099450       0.00165009      -0.00099450       0.00099450       0.00033661       0.00036525       0.00000000       0.02677260       0.03111238       0.00099450       0.00165009       0.00099450       0.00099450       0.00033661      -0.00036525      -0.00000000      -0.00167567       0.00000000       0.00036525       0.00033661       0.00099450       0.00000000       0.00040762      -0.00000000       0.00036525       0.00033661      -0.00099450       0.00000000      -0.00065952      -0.00000000      -0.00099450       0.00033661      -0.00036525      -0.00099450       0.00165009      -0.00099450       0.00000000       0.00032926      -0.00000403       0.00000000      -0.00031198      -0.00000000      -0.03111238       0.02677260      -0.00000000      -0.00000000       0.00275608       0.00000000       0.00000403       0.00032926      -0.00000000       0.00000000      -0.00065952      -0.00000000       0.00000000       0.00023213      -0.00011805      -0.00036525       0.00033661       0.00099450      -0.00000000       0.00005933       0.00000000      -0.00036525       0.00033661       0.00099450      -0.00099450       0.00165009       0.00099450      -0.00099450       0.00033661       0.00036525      -0.00000000      -0.00031198       0.00000000       0.00000000       0.00032926       0.00000403       0.00011805       0.00023213      -0.00000000      -0.00000403       0.00032926       0.00000000       0.00000000      -0.00086665      -0.00000000      -0.00000403       0.00032926      -0.00000000      -0.00099450       0.00165009       0.00099450      -0.00000000       0.00032926       0.00000403       0.00000000      -0.00031198       0.00000000      -0.00099450       0.00033661       0.00036525       0.00000000       0.02677260       0.03111238       0.00000000      -0.00167567       0.00000000       0.00099450       0.00033661      -0.00036525       0.00099450       0.00165009       0.00099450      -0.03111238       0.02677260       0.00000000       0.00000000      -0.00065952      -0.00000000       0.00000403       0.00032926      -0.00000000      -0.00000000       0.00275608       0.00000000      -0.00099450       0.00033661      -0.00036525       0.00000000      -0.00031198       0.00000000       0.00000000       0.00032926      -0.00000403      -0.00099450       0.00165009      -0.00099450       0.00036525       0.00033661       0.00099450       0.00000000      -0.00065952      -0.00000000       0.00036525       0.00033661      -0.00099450       0.00000000       0.00040762      -0.00000000 </v>
    <v>       0.00000000       0.00000000      -0.23132054       0.00000000       0.00000000      -0.00167567      -0.00000000      -0.00000000       0.00005933      -0.00000000      -0.00000000      -0.00167567       0.03111238      -0.00000000       0.02677260       0.00099450       0.00036525       0.00033661      -0.00036525      -0.00099450       0.00033661      -0.00000000      -0.03111238       0.02677260      -0.00011805      -0.00000000       0.00023213       0.00099450      -0.00099450       0.00165009       0.00000000       0.00011805       0.00023213       0.00099450      -0.00099450       0.00165009       0.03111238      -0.00000000       0.02677260       0.00000000      -0.03111238       0.02677260      -0.00036525      -0.00099450       0.00033661       0.00099450       0.00036525       0.00033661      -0.00000000       0.03111238       0.02677260       0.00036525       0.00099450       0.00033661      -0.00099450      -0.00036525       0.00033661      -0.03111238       0.00000000       0.02677260       0.00099450       0.00099450       0.00165009      -0.00000000      -0.00000000       0.00040762      -0.00099450      -0.00099450       0.00165009       0.00000000      -0.00000000       0.00275608       0.00099450      -0.00036525       0.00033661       0.00036525      -0.00099450       0.00033661      -0.00000000      -0.00000403       0.00032926       0.00000403       0.00000000       0.00032926      -0.00000000       0.00000000      -0.00167567      -0.00000000       0.00000000      -0.00065952       0.00000000      -0.00000000      -0.00031198      -0.00000000      -0.00000000      -0.00065952      -0.00000000      -0.00011805       0.00023213      -0.00099450       0.00099450       0.00165009       0.00011805       0.00000000       0.00023213      -0.00099450       0.00099450       0.00165009      -0.00036525       0.00099450       0.00033661      -0.00099450       0.00036525       0.00033661      -0.00000403       0.00000000       0.00032926      -0.00000000       0.00000403       0.00032926      -0.00000000      -0.00000000       0.00005933       0.00000000      -0.00000000      -0.00031198      -0.00000000      -0.00000000      -0.00086665       0.00000000       0.00000000      -0.00031198      -0.00036525       0.00099450       0.00033661      -0.00000000       0.00000403       0.00032926      -0.00000403       0.00000000       0.00032926      -0.00099450       0.00036525       0.00033661       0.00000000       0.03111238       0.02677260      -0.03111238       0.00000000       0.02677260      -0.00099450      -0.00036525       0.00033661       0.00036525       0.00099450       0.00033661       0.00000000      -0.00000000      -0.00167567      -0.00000000      -0.00000000      -0.00065952       0.00000000      -0.00000000      -0.00031198      -0.00000000       0.00000000      -0.00065952       0.00099450      -0.00036525       0.00033661       0.00000403      -0.00000000       0.00032926       0.00000000      -0.00000403       0.00032926       0.00036525      -0.00099450       0.00033661       0.00099450       0.00099450       0.00165009       0.00000000      -0.00000000       0.00275608      -0.00099450      -0.00099450       0.00165009      -0.00000000      -0.00000000       0.00040762 </v>
    <v>       0.02677260       0.03111238       0.00000000      -0.23132054       0.00000000       0.00000000       0.02677260       0.03111238      -0.00000000       0.00023213      -0.00011805      -0.00000000      -0.00167567       0.00000000       0.00000000       0.02677260       0.00000000       0.03111238       0.00165009       0.00099450       0.00099450       0.00033661       0.00099450      -0.00036525       0.00033661      -0.00036525       0.00099450       0.00023213       0.00000000      -0.00011805       0.00033661      -0.00036525       0.00099450       0.00005933      -0.00000000       0.00000000       0.00165009       0.00099450       0.00099450       0.02677260       0.00000000       0.03111238      -0.00167567       0.00000000      -0.00000000       0.00033661       0.00099450      -0.00036525       0.02677260       0.00000000      -0.03111238      -0.00167567       0.00000000       0.00000000       0.00033661       0.00099450       0.00036525       0.00165009       0.00099450      -0.00099450      -0.00065952       0.00000000       0.00000000       0.00033661       0.00036525       0.00099450       0.00040762       0.00000000      -0.00000000       0.00033661       0.00036525      -0.00099450       0.00032926       0.00000000       0.00000403       0.00165009      -0.00099450       0.00099450       0.00033661      -0.00099450       0.00036525      -0.00031198       0.00000000       0.00000000       0.00275608       0.00000000      -0.00000000       0.02677260      -0.03111238       0.00000000      -0.00065952      -0.00000000      -0.00000000       0.00032926       0.00000403       0.00000000       0.00033661      -0.00036525      -0.00099450       0.00005933       0.00000000      -0.00000000       0.00033661      -0.00036525      -0.00099450       0.00023213      -0.00000000       0.00011805      -0.00031198      -0.00000000      -0.00000000       0.00033661      -0.00099450      -0.00036525       0.00165009      -0.00099450      -0.00099450       0.00032926       0.00000000      -0.00000403       0.00032926      -0.00000403       0.00000000       0.00023213       0.00011805      -0.00000000       0.00032926      -0.00000403       0.00000000      -0.00086665       0.00000000      -0.00000000       0.00165009      -0.00099450      -0.00099450       0.00033661      -0.00099450      -0.00036525      -0.00031198       0.00000000      -0.00000000       0.00032926      -0.00000000      -0.00000403       0.00033661       0.00099450       0.00036525      -0.00167567       0.00000000      -0.00000000       0.02677260      -0.00000000      -0.03111238       0.00165009       0.00099450      -0.00099450      -0.00065952      -0.00000000      -0.00000000       0.02677260      -0.03111238      -0.00000000       0.00275608       0.00000000      -0.00000000       0.00032926       0.00000403       0.00000000       0.00033661      -0.00099450       0.00036525       0.00165009      -0.00099450       0.00099450       0.00032926       0.00000000       0.00000403      -0.00031198       0.00000000      -0.00000000       0.00040762       0.00000000      -0.00000000       0.00033661       0.00036525       0.00099450      -0.00065952       0.00000000       0.00000000       0.00033661       0.00036525      -0.00099450 </v>
    <v>       0.03111238       0.02677260       0.00000000       0.00000000      -0.23132054       0.00000000       0.03111238       0.02677260      -0.00000000      -0.00011805       0.00023213      -0.00000000       0.00000000       0.02677260      -0.03111238       0.00000000      -0.00167567      -0.00000000       0.00099450       0.00033661       0.00036525       0.00099450       0.00165009      -0.00099450      -0.00036525       0.00033661      -0.00099450       0.00000000       0.00005933      -0.00000000      -0.00036525       0.00033661      -0.00099450      -0.00000000       0.00023213       0.00011805       0.00099450       0.00033661       0.00036525       0.00000000      -0.00167567      -0.00000000       0.00000000       0.02677260      -0.03111238       0.00099450       0.00165009      -0.00099450      -0.00000000      -0.00167567       0.00000000       0.00000000       0.02677260       0.03111238       0.00099450       0.00165009       0.00099450       0.00099450       0.00033661      -0.00036525       0.00000000      -0.00065952      -0.00000000       0.00036525       0.00033661       0.00099450       0.00000000       0.00040762      -0.00000000       0.00036525       0.00033661      -0.00099450       0.00000000      -0.00031198      -0.00000000      -0.00099450       0.00033661      -0.00036525      -0.00099450       0.00165009      -0.00099450       0.00000000       0.00032926      -0.00000403       0.00000000      -0.00065952      -0.00000000      -0.03111238       0.02677260      -0.00000000      -0.00000000       0.00275608       0.00000000       0.00000403       0.00032926      -0.00000000      -0.00036525       0.00033661       0.00099450       0.00000000       0.00023213      -0.00011805      -0.00036525       0.00033661       0.00099450      -0.00000000       0.00005933       0.00000000       0.00000000       0.00032926       0.00000403      -0.00099450       0.00165009       0.00099450      -0.00099450       0.00033661       0.00036525      -0.00000000      -0.00031198       0.00000000      -0.00000403       0.00032926      -0.00000000       0.00011805       0.00023213      -0.00000000      -0.00000403       0.00032926       0.00000000       0.00000000      -0.00086665      -0.00000000      -0.00099450       0.00033661       0.00036525      -0.00099450       0.00165009       0.00099450      -0.00000000       0.00032926       0.00000403       0.00000000      -0.00031198       0.00000000       0.00099450       0.00165009       0.00099450       0.00000000       0.02677260       0.03111238       0.00000000      -0.00167567       0.00000000       0.00099450       0.00033661      -0.00036525      -0.00000000       0.00275608       0.00000000      -0.03111238       0.02677260       0.00000000       0.00000000      -0.00065952      -0.00000000       0.00000403       0.00032926      -0.00000000      -0.00099450       0.00165009      -0.00099450      -0.00099450       0.00033661      -0.00036525       0.00000000      -0.00031198       0.00000000       0.00000000       0.00032926      -0.00000403       0.00000000       0.00040762      -0.00000000       0.00036525       0.00033661       0.00099450       0.00000000      -0.00065952      -0.00000000       0.00036525       0.00033661      -0.00099450 </v>
    <v>      -0.00000000      -0.00000000      -0.00167567       0.00000000       0.00000000      -0.23132054       0.00000000       0.00000000      -0.00167567      -0.00000000      -0.00000000       0.00005933      -0.00000000      -0.03111238       0.02677260       0.03111238      -0.00000000       0.02677260       0.00099450       0.00036525       0.00033661      -0.00036525      -0.00099450       0.00033661       0.00099450      -0.00099450       0.00165009      -0.00011805      -0.00000000       0.00023213       0.00099450      -0.00099450       0.00165009       0.00000000       0.00011805       0.00023213       0.00099450       0.00036525       0.00033661       0.03111238      -0.00000000       0.02677260       0.00000000      -0.03111238       0.02677260      -0.00036525      -0.00099450       0.00033661      -0.03111238       0.00000000       0.02677260      -0.00000000       0.03111238       0.02677260       0.00036525       0.00099450       0.00033661      -0.00099450      -0.00036525       0.00033661       0.00000000      -0.00000000       0.00275608       0.00099450       0.00099450       0.00165009      -0.00000000      -0.00000000       0.00040762      -0.00099450      -0.00099450       0.00165009       0.00000403       0.00000000       0.00032926       0.00099450      -0.00036525       0.00033661       0.00036525      -0.00099450       0.00033661      -0.00000000      -0.00000403       0.00032926      -0.00000000      -0.00000000      -0.00065952      -0.00000000       0.00000000      -0.00167567      -0.00000000       0.00000000      -0.00065952       0.00000000      -0.00000000      -0.00031198      -0.00099450       0.00099450       0.00165009      -0.00000000      -0.00011805       0.00023213      -0.00099450       0.00099450       0.00165009       0.00011805       0.00000000       0.00023213      -0.00000000       0.00000403       0.00032926      -0.00036525       0.00099450       0.00033661      -0.00099450       0.00036525       0.00033661      -0.00000403       0.00000000       0.00032926       0.00000000       0.00000000      -0.00031198      -0.00000000      -0.00000000       0.00005933       0.00000000      -0.00000000      -0.00031198      -0.00000000      -0.00000000      -0.00086665      -0.00099450       0.00036525       0.00033661      -0.00036525       0.00099450       0.00033661      -0.00000000       0.00000403       0.00032926      -0.00000403       0.00000000       0.00032926       0.00036525       0.00099450       0.00033661       0.00000000       0.03111238       0.02677260      -0.03111238       0.00000000       0.02677260      -0.00099450      -0.00036525       0.00033661      -0.00000000       0.00000000      -0.00065952       0.00000000      -0.00000000      -0.00167567      -0.00000000      -0.00000000      -0.00065952       0.00000000      -0.00000000      -0.00031198       0.00036525      -0.00099450       0.00033661       0.00099450      -0.00036525       0.00033661       0.00000403      -0.00000000       0.00032926       0.00000000      -0.00000403       0.00032926      -0.00000000      -0.00000000       0.00040762       0.00099450       0.00099450       0.00165009       0.00000000      -0.00000000       0.00275608      -0.00099450      -0.00099450       0.00165009 </v>
    <v>       0.00023213      -0.00011805      -0.00000000       0.02677260       0.03111238       0.00000000      -0.23132054       0.00000000       0.00000000       0.02677260       0.03111238      -0.00000000       0.00033661       0.00099450      -0.00036525      -0.00167567       0.00000000       0.00000000       0.02677260       0.00000000       0.03111238       0.00165009       0.00099450       0.00099450       0.00005933      -0.00000000       0.00000000       0.00033661      -0.00036525       0.00099450       0.00023213       0.00000000      -0.00011805       0.00033661      -0.00036525       0.00099450       0.00033661       0.00099450      -0.00036525       0.00165009       0.00099450       0.00099450       0.02677260       0.00000000       0.03111238      -0.00167567       0.00000000      -0.00000000       0.00165009       0.00099450      -0.00099450       0.02677260       0.00000000      -0.03111238      -0.00167567       0.00000000       0.00000000       0.00033661       0.00099450       0.00036525       0.00033661       0.00036525      -0.00099450      -0.00065952       0.00000000       0.00000000       0.00033661       0.00036525       0.00099450       0.00040762       0.00000000      -0.00000000      -0.00031198       0.00000000       0.00000000       0.00032926       0.00000000       0.00000403       0.00165009      -0.00099450       0.00099450       0.00033661      -0.00099450       0.00036525       0.00032926       0.00000403       0.00000000       0.00275608       0.00000000      -0.00000000       0.02677260      -0.03111238       0.00000000      -0.00065952      -0.00000000      -0.00000000       0.00023213      -0.00000000       0.00011805       0.00033661      -0.00036525      -0.00099450       0.00005933       0.00000000      -0.00000000       0.00033661      -0.00036525      -0.00099450       0.00032926       0.00000000      -0.00000403      -0.00031198      -0.00000000      -0.00000000       0.00033661      -0.00099450      -0.00036525       0.00165009      -0.00099450      -0.00099450      -0.00086665       0.00000000      -0.00000000       0.00032926      -0.00000403       0.00000000       0.00023213       0.00011805      -0.00000000       0.00032926      -0.00000403       0.00000000       0.00032926      -0.00000000      -0.00000403       0.00165009      -0.00099450      -0.00099450       0.00033661      -0.00099450      -0.00036525      -0.00031198       0.00000000      -0.00000000       0.00165009       0.00099450      -0.00099450       0.00033661       0.00099450       0.00036525      -0.00167567       0.00000000      -0.00000000       0.02677260      -0.00000000      -0.03111238       0.00032926       0.00000403       0.00000000      -0.00065952      -0.00000000      -0.00000000       0.02677260      -0.03111238      -0.00000000       0.00275608       0.00000000      -0.00000000      -0.00031198       0.00000000      -0.00000000       0.00033661      -0.00099450       0.00036525       0.00165009      -0.00099450       0.00099450       0.00032926       0.00000000       0.00000403       0.00033661       0.00036525      -0.00099450       0.00040762       0.00000000      -0.00000000       0.00033661       0.00036525       0.00099450      -0.00065952       0.00000000       0.00000000 </v>
    <v>      -0.00011805       0.00023213      -0.00000000       0.03111238       0.02677260       0.00000000       0.00000000      -0.23132054       0.00000000       0.03111238       0.02677260      -0.00000000       0.00099450       0.00165009      -0.00099450       0.00000000       0.02677260      -0.03111238       0.00000000      -0.00167567      -0.00000000       0.00099450       0.00033661       0.00036525      -0.00000000       0.00023213       0.00011805      -0.00036525       0.00033661      -0.00099450       0.00000000       0.00005933      -0.00000000      -0.00036525       0.00033661      -0.00099450       0.00099450       0.00165009      -0.00099450       0.00099450       0.00033661       0.00036525       0.00000000      -0.00167567      -0.00000000       0.00000000       0.02677260      -0.03111238       0.00099450       0.00033661      -0.00036525      -0.00000000      -0.00167567       0.00000000       0.00000000       0.02677260       0.03111238       0.00099450       0.00165009       0.00099450       0.00036525       0.00033661      -0.00099450       0.00000000      -0.00065952      -0.00000000       0.00036525       0.00033661       0.00099450       0.00000000       0.00040762      -0.00000000       0.00000000       0.00032926      -0.00000403       0.00000000      -0.00031198      -0.00000000      -0.00099450       0.00033661      -0.00036525      -0.00099450       0.00165009      -0.00099450       0.00000403       0.00032926      -0.00000000       0.00000000      -0.00065952      -0.00000000      -0.03111238       0.02677260      -0.00000000      -0.00000000       0.00275608       0.00000000      -0.00000000       0.00005933       0.00000000      -0.00036525       0.00033661       0.00099450       0.00000000       0.00023213      -0.00011805      -0.00036525       0.00033661       0.00099450      -0.00000000      -0.00031198       0.00000000       0.00000000       0.00032926       0.00000403      -0.00099450       0.00165009       0.00099450      -0.00099450       0.00033661       0.00036525       0.00000000      -0.00086665      -0.00000000      -0.00000403       0.00032926      -0.00000000       0.00011805       0.00023213      -0.00000000      -0.00000403       0.00032926       0.00000000       0.00000000      -0.00031198       0.00000000      -0.00099450       0.00033661       0.00036525      -0.00099450       0.00165009       0.00099450      -0.00000000       0.00032926       0.00000403       0.00099450       0.00033661      -0.00036525       0.00099450       0.00165009       0.00099450       0.00000000       0.02677260       0.03111238       0.00000000      -0.00167567       0.00000000       0.00000403       0.00032926      -0.00000000      -0.00000000       0.00275608       0.00000000      -0.03111238       0.02677260       0.00000000       0.00000000      -0.00065952      -0.00000000       0.00000000       0.00032926      -0.00000403      -0.00099450       0.00165009      -0.00099450      -0.00099450       0.00033661      -0.00036525       0.00000000      -0.00031198       0.00000000       0.00036525       0.00033661      -0.00099450       0.00000000       0.00040762      -0.00000000       0.00036525       0.00033661       0.00099450       0.00000000      -0.00065952      -0.00000000 </v>
    <v>      -0.00000000      -0.00000000       0.00005933      -0.00000000      -0.00000000      -0.00167567       0.00000000       0.00000000      -0.23132054       0.00000000       0.00000000      -0.00167567      -0.00036525      -0.00099450       0.00033661      -0.00000000      -0.03111238       0.02677260       0.03111238      -0.00000000       0.02677260       0.00099450       0.00036525       0.00033661       0.00000000       0.00011805       0.00023213       0.00099450      -0.00099450       0.00165009      -0.00011805      -0.00000000       0.00023213       0.00099450      -0.00099450       0.00165009      -0.00036525      -0.00099450       0.00033661       0.00099450       0.00036525       0.00033661       0.03111238      -0.00000000       0.02677260       0.00000000      -0.03111238       0.02677260      -0.00099450      -0.00036525       0.00033661      -0.03111238       0.00000000       0.02677260      -0.00000000       0.03111238       0.02677260       0.00036525       0.00099450       0.00033661      -0.00099450      -0.00099450       0.00165009       0.00000000      -0.00000000       0.00275608       0.00099450       0.00099450       0.00165009      -0.00000000      -0.00000000       0.00040762      -0.00000000      -0.00000403       0.00032926       0.00000403       0.00000000       0.00032926       0.00099450      -0.00036525       0.00033661       0.00036525      -0.00099450       0.00033661       0.00000000      -0.00000000      -0.00031198      -0.00000000      -0.00000000      -0.00065952      -0.00000000       0.00000000      -0.00167567      -0.00000000       0.00000000      -0.00065952       0.00011805       0.00000000       0.00023213      -0.00099450       0.00099450       0.00165009      -0.00000000      -0.00011805       0.00023213      -0.00099450       0.00099450       0.00165009      -0.00000403       0.00000000       0.00032926      -0.00000000       0.00000403       0.00032926      -0.00036525       0.00099450       0.00033661      -0.00099450       0.00036525       0.00033661      -0.00000000      -0.00000000      -0.00086665       0.00000000       0.00000000      -0.00031198      -0.00000000      -0.00000000       0.00005933       0.00000000      -0.00000000      -0.00031198      -0.00000403       0.00000000       0.00032926      -0.00099450       0.00036525       0.00033661      -0.00036525       0.00099450       0.00033661      -0.00000000       0.00000403       0.00032926      -0.00099450      -0.00036525       0.00033661       0.00036525       0.00099450       0.00033661       0.00000000       0.03111238       0.02677260      -0.03111238       0.00000000       0.02677260       0.00000000      -0.00000000      -0.00031198      -0.00000000       0.00000000      -0.00065952       0.00000000      -0.00000000      -0.00167567      -0.00000000      -0.00000000      -0.00065952       0.00000000      -0.00000403       0.00032926       0.00036525      -0.00099450       0.00033661       0.00099450      -0.00036525       0.00033661       0.00000403      -0.00000000       0.00032926      -0.00099450      -0.00099450       0.00165009      -0.00000000      -0.00000000       0.00040762       0.00099450       0.00099450       0.00165009       0.00000000      -0.00000000       0.00275608 </v>
    <v>       0.02677260       0.03111238      -0.00000000       0.00023213      -0.00011805      -0.00000000       0.02677260       0.03111238       0.00000000      -0.23132054       0.00000000       0.00000000       0.00165009       0.00099450       0.00099450       0.00033661       0.00099450      -0.00036525      -0.00167567       0.00000000       0.00000000       0.02677260       0.00000000       0.03111238       0.00033661      -0.00036525       0.00099450       0.00005933      -0.00000000       0.00000000       0.00033661      -0.00036525       0.00099450       0.00023213       0.00000000      -0.00011805      -0.00167567       0.00000000      -0.00000000       0.00033661       0.00099450      -0.00036525       0.00165009       0.00099450       0.00099450       0.02677260       0.00000000       0.03111238       0.00033661       0.00099450       0.00036525       0.00165009       0.00099450      -0.00099450       0.02677260       0.00000000      -0.03111238      -0.00167567       0.00000000       0.00000000       0.00040762       0.00000000      -0.00000000       0.00033661       0.00036525      -0.00099450      -0.00065952       0.00000000       0.00000000       0.00033661       0.00036525       0.00099450       0.00033661      -0.00099450       0.00036525      -0.00031198       0.00000000       0.00000000       0.00032926       0.00000000       0.00000403       0.00165009      -0.00099450       0.00099450      -0.00065952      -0.00000000      -0.00000000       0.00032926       0.00000403       0.00000000       0.00275608       0.00000000      -0.00000000       0.02677260      -0.03111238       0.00000000       0.00033661      -0.00036525      -0.00099450       0.00023213      -0.00000000       0.00011805       0.00033661      -0.00036525      -0.00099450       0.00005933       0.00000000      -0.00000000       0.00165009      -0.00099450      -0.00099450       0.00032926       0.00000000      -0.00000403      -0.00031198      -0.00000000      -0.00000000       0.00033661      -0.00099450      -0.00036525       0.00032926      -0.00000403       0.00000000      -0.00086665       0.00000000      -0.00000000       0.00032926      -0.00000403       0.00000000       0.00023213       0.00011805      -0.00000000      -0.00031198       0.00000000      -0.00000000       0.00032926      -0.00000000      -0.00000403       0.00165009      -0.00099450      -0.00099450       0.00033661      -0.00099450      -0.00036525       0.02677260      -0.00000000      -0.03111238       0.00165009       0.00099450      -0.00099450       0.00033661       0.00099450       0.00036525      -0.00167567       0.00000000      -0.00000000       0.00275608       0.00000000      -0.00000000       0.00032926       0.00000403       0.00000000      -0.00065952      -0.00000000      -0.00000000       0.02677260      -0.03111238      -0.00000000       0.00032926       0.00000000       0.00000403      -0.00031198       0.00000000      -0.00000000       0.00033661      -0.00099450       0.00036525       0.00165009      -0.00099450       0.00099450      -0.00065952       0.00000000       0.00000000       0.00033661       0.00036525      -0.00099450       0.00040762       0.00000000      -0.00000000       0.00033661       0.00036525       0.00099450 </v>
[...]
       <r>    25.2532     0.0000   648.0000 </r>
       <r>    25.5424     0.0000   648.0000 </r>
       <r>    25.8315     0.0000   648.0000 </r>
       <r>    26.1207     0.0000   648.0000 </r>
       <r>    26.4098     0.0000   648.0000 </r>
       <r>    26.6990     0.0000   648.0000 </r>
       <r>    26.9881     0.0000   648.0000 </r>
       <r>    27.2773     0.0000   648.0000 </r>
       <r>    27.5664     0.0000   648.0000 </r>
      </set>
      <set comment="spin 2">
       <r>   -59.1770     0.0000     0.0000 </r>
       <r>   -58.8879     0.0000     0.0000 </r>
       <r>   -58.5987     0.0000     0.0000 </r>
       <r>   -58.3096     0.0000     0.0000 </r>
       <r>   -58.0204     0.0000     0.0000 </r>
       <r>   -57.7313     0.0000     0.0000 </r>
       <r>   -57.4422     0.0000     0.0000 </r>
       <r>   -57.1530     0.0000     0.0000 </r>
       <r>   -56.8639     0.0000     0.0000 </r>
       <r>   -56.5747     0.0000     0.0000 </r>
       <r>   -56.2856    -0.0000    -0.0000 </r>
       <r>   -55.9964    -0.0000    -0.0000 </r>
       <r>   -55.7073    -0.0000    -0.0000 </r>
       <r>   -55.4181    -0.0000    -0.0000 </r>
       <r>   -55.1290    -0.0003    -0.0001 </r>
       <r>   -54.8399    -0.7276    -0.2105 </r>
       <r>   -54.5507    -7.5028    -2.3799 </r>
       <r>   -54.2616   364.1453   102.9108 </r>
       <r>   -53.9724   323.3858   196.4161 </r>
       <r>   -53.6833   -14.9961   192.0801 </r>
       <r>   -53.3941    -0.2769   192.0000 </r>
       <r>   -53.1050    -0.0000   192.0000 </r>
       <r>   -52.8158    -0.0000   192.0000 </r>
       <r>   -52.5267     0.0000   192.0000 </r>
       <r>   -52.2376     0.0000   192.0000 </r>
       <r>   -51.9484     0.0000   192.0000 </r>
       <r>   -51.6593     0.0000   192.0000 </r>
       <r>   -51.3701     0.0000   192.0000 </r>
       <r>   -51.0810     0.0000   192.0000 </r>
       <r>   -50.7918     0.0000   192.0000 </r>
       <r>   -50.5027     0.0000   192.0000 </r>
       <r>   -50.2135     0.0000   192.0000 </r>
       <r>   -49.9244     0.0000   192.0000 </r>
       <r>   -49.6353     0.0000   192.0000 </r>
       <r>   -49.3461     0.0000   192.0000 </r>
       <r>   -49.0570     0.0000   192.0000 </r>
       <r>   -48.7678     0.0000   192.0000 </r>
       <r>   -48.4787     0.0000   192.0000 </r>
       <r>   -48.1895     0.0000   192.0000 </r>
       <r>   -47.9004     0.0000   192.0000 </r>
       <r>   -47.6112     0.0000   192.0000 </r>
       <r>   -47.3221     0.0000   192.0000 </r>
       <r>   -47.0329     0.0000   192.0000 </r>
       <r>   -46.7438     0.0000   192.0000 </r>
       <r>   -46.4547     0.0000   192.0000 </r>
       <r>   -46.1655     0.0000   192.0000 </r>
       <r>   -45.8764     0.0000   192.0000 </r>
       <r>   -45.5872     0.0000   192.0000 </r>
       <r>   -45.2981     0.0000   192.0000 </r>
       <r>   -45.0089     0.0000   192.0000 </r>
       <r>   -44.7198     0.0000   192.0000 </r>
       <r>   -44.4306     0.0000   192.0000 </r>
       <r>   -44.1415     0.0000   192.0000 </r>
       <r>   -43.8524     0.0000   192.0000 </r>
       <r>   -43.5632     0.0000   192.0000 </r>
       <r>   -43.2741     0.0000   192.0000 </r>
       <r>   -42.9849     0.0000   192.0000 </r>
       <r>   -42.6958     0.0000   192.0000 </r>
       <r>   -42.4066     0.0000   192.0000 </r>
       <r>   -42.1175     0.0000   192.0000 </r>
       <r>   -41.8283     0.0000   192.0000 </r>
       <r>   -41.5392     0.0000   192.0000 </r>
       <r>   -41.2501     0.0000   192.0000 </r>
       <r>   -40.9609     0.0000   192.0000 </r>
       <r>   -40.6718     0.0000   192.0000 </r>
       <r>   -40.3826     0.0000   192.0000 </r>
       <r>   -40.0935     0.0000   192.0000 </r>
       <r>   -39.8043     0.0000   192.0000 </r>
       <r>   -39.5152     0.0000   192.0000 </r>
       <r>   -39.2260     0.0000   192.0000 </r>
       <r>   -38.9369     0.0000   192.0000 </r>
       <r>   -38.6478     0.0000   192.0000 </r>
       <r>   -38.3586     0.0000   192.0000 </r>
       <r>   -38.0695     0.0000   192.0000 </r>
       <r>   -37.7803     0.0000   192.0000 </r>
       <r>   -37.4912     0.0000   192.0000 </r>
       <r>   -37.2020     0.0000   192.0000 </r>
       <r>   -36.9129     0.0000   192.0000 </r>
       <r>   -36.6237     0.0000   192.0000 </r>
       <r>   -36.3346     0.0000   192.0000 </r>
       <r>   -36.0454     0.0000   192.0000 </r>
       <r>   -35.7563     0.0000   192.0000 </r>
       <r>   -35.4672     0.0000   192.0000 </r>
       <r>   -35.1780     0.0000   192.0000 </r>
       <r>   -34.8889     0.0000   192.0000 </r>
       <r>   -34.5997     0.0000   192.0000 </r>
       <r>   -34.3106     0.0000   192.0000 </r>
       <r>   -34.0214     0.0000   192.0000 </r>
       <r>   -33.7323     0.0000   192.0000 </r>
       <r>   -33.4431     0.0000   192.0000 </r>
       <r>   -33.1540     0.0000   192.0000 </r>
       <r>   -32.8649     0.0000   192.0000 </r>
       <r>   -32.5757     0.0000   192.0000 </r>
       <r>   -32.2866     0.0000   192.0000 </r>
       <r>   -31.9974     0.0000   192.0000 </r>
       <r>   -31.7083     0.0000   192.0000 </r>
       <r>   -31.4191     0.0000   192.0000 </r>
       <r>   -31.1300     0.0000   192.0000 </r>
       <r>   -30.8408     0.0000   192.0000 </r>
       <r>   -30.5517     0.0000   192.0000 </r>
       <r>   -30.2626     0.0000   192.0000 </r>
       <r>   -29.9734     0.0000   192.0000 </r>
       <r>   -29.6843     0.0000   192.0000 </r>
       <r>   -29.3951     0.0000   192.0000 </r>
       <r>   -29.1060     0.0000   192.0000 </r>
       <r>   -28.8168     0.0000   192.0000 </r>
       <r>   -28.5277     0.0000   192.0000 </r>
       <r>   -28.2385     0.0000   192.0000 </r>
       <r>   -27.9494     0.0000   192.0000 </r>
       <r>   -27.6602     0.0000   192.0000 </r>
       <r>   -27.3711     0.0000   192.0000 </r>
       <r>   -27.0820     0.0000   192.0000 </r>
       <r>   -26.7928     0.0000   192.0000 </r>
       <r>   -26.5037     0.0000   192.0000 </r>
       <r>   -26.2145     0.0000   192.0000 </r>
       <r>   -25.9254     0.0000   192.0000 </r>
       <r>   -25.6362     0.0000   192.0000 </r>
       <r>   -25.3471     0.0000   192.0000 </r>
       <r>   -25.0579     0.0000   192.0000 </r>
       <r>   -24.7688     0.0000   192.0000 </r>
       <r>   -24.4797     0.0000   192.0000 </r>
       <r>   -24.1905     0.0000   192.0000 </r>
       <r>   -23.9014     0.0000   192.0000 </r>
       <r>   -23.6122     0.0000   192.0000 </r>
       <r>   -23.3231     0.0000   192.0000 </r>
       <r>   -23.0339     0.0000   192.0000 </r>
       <r>   -22.7448     0.0000   192.0000 </r>
       <r>   -22.4556     0.0000   192.0000 </r>
       <r>   -22.1665     0.0000   192.0000 </r>
       <r>   -21.8774     0.0000   192.0000 </r>
       <r>   -21.5882     0.0000   192.0000 </r>
       <r>   -21.2991     0.0000   192.0000 </r>
       <r>   -21.0099     0.0000   192.0000 </r>
       <r>   -20.7208     0.0000   192.0000 </r>
       <r>   -20.4316     0.0000   192.0000 </r>
       <r>   -20.1425     0.0000   192.0000 </r>
       <r>   -19.8533     0.0000   192.0000 </r>
       <r>   -19.5642     0.0000   192.0000 </r>
       <r>   -19.2751     0.0000   192.0000 </r>
       <r>   -18.9859     0.0000   192.0000 </r>
       <r>   -18.6968     0.0000   192.0000 </r>
       <r>   -18.4076     0.0000   192.0000 </r>
       <r>   -18.1185     0.0000   192.0000 </r>
       <r>   -17.8293     0.0000   192.0000 </r>
       <r>   -17.5402     0.0000   192.0000 </r>
       <r>   -17.2510     0.0000   192.0000 </r>
       <r>   -16.9619     0.0000   192.0000 </r>
       <r>   -16.6727     0.0000   192.0000 </r>
       <r>   -16.3836     0.0000   192.0000 </r>
       <r>   -16.0945     0.0000   192.0000 </r>
       <r>   -15.8053     0.0000   192.0000 </r>
       <r>   -15.5162     0.0000   192.0000 </r>
       <r>   -15.2270     0.0000   192.0000 </r>
       <r>   -14.9379     0.0000   192.0000 </r>
       <r>   -14.6487     0.0000   192.0000 </r>
       <r>   -14.3596     0.0000   192.0000 </r>
       <r>   -14.0704     0.0000   192.0000 </r>
       <r>   -13.7813     0.0000   192.0000 </r>
       <r>   -13.4922     0.0000   192.0000 </r>
       <r>   -13.2030     0.0000   192.0000 </r>
       <r>   -12.9139     0.0000   192.0000 </r>
       <r>   -12.6247     0.0000   192.0000 </r>
       <r>   -12.3356     0.0000   192.0000 </r>
       <r>   -12.0464     0.0000   192.0000 </r>
       <r>   -11.7573     0.0000   192.0000 </r>
       <r>   -11.4681     0.0000   192.0000 </r>
       <r>   -11.1790     0.0000   192.0000 </r>
       <r>   -10.8899     0.0000   192.0000 </r>
       <r>   -10.6007     0.0000   192.0000 </r>
       <r>   -10.3116     0.0000   192.0000 </r>
       <r>   -10.0224     0.0000   192.0000 </r>
       <r>    -9.7333     0.0000   192.0000 </r>
       <r>    -9.4441     0.0000   192.0000 </r>
       <r>    -9.1550     0.0000   192.0000 </r>
       <r>    -8.8658     0.0000   192.0000 </r>
       <r>    -8.5767     0.0000   192.0000 </r>
       <r>    -8.2876     0.0000   192.0000 </r>
       <r>    -7.9984     0.0000   192.0000 </r>
       <r>    -7.7093     0.0000   192.0000 </r>
       <r>    -7.4201     0.0000   192.0000 </r>
       <r>    -7.1310     0.0000   192.0000 </r>
       <r>    -6.8418     0.0000   192.0000 </r>
       <r>    -6.5527     0.0000   192.0000 </r>
       <r>    -6.2635     0.0000   192.0000 </r>
       <r>    -5.9744     0.0000   192.0000 </r>
       <r>    -5.6852     0.0000   192.0000 </r>
       <r>    -5.3961     0.0000   192.0000 </r>
       <r>    -5.1070     0.0000   192.0000 </r>
       <r>    -4.8178     0.0000   192.0000 </r>
       <r>    -4.5287     0.0000   192.0000 </r>
       <r>    -4.2395     0.0000   192.0000 </r>
       <r>    -3.9504     0.0000   192.0000 </r>
       <r>    -3.6612     0.0000   192.0000 </r>
       <r>    -3.3721     0.0000   192.0000 </r>
       <r>    -3.0829     0.0000   192.0000 </r>
       <r>    -2.7938     0.0000   192.0000 </r>
       <r>    -2.5047    -0.0000   192.0000 </r>
       <r>    -2.2155    -0.0000   192.0000 </r>
       <r>    -1.9264    -0.0000   192.0000 </r>
       <r>    -1.6372    -0.0000   192.0000 </r>
       <r>    -1.3481    -0.0000   192.0000 </r>
       <r>    -1.0589    -0.0023   191.9993 </r>
       <r>    -0.7698     0.0168   192.0042 </r>
       <r>    -0.4806     0.4188   192.1253 </r>
       <r>    -0.1915     1.4343   192.5400 </r>
       <r>     0.0976     1.0189   192.8346 </r>
       <r>     0.3868     3.3194   193.7944 </r>
       <r>     0.6759     1.4841   194.2235 </r>
       <r>     0.9651     1.4006   194.6285 </r>
       <r>     1.2542     5.2311   196.1410 </r>
       <r>     1.5434     2.8915   196.9771 </r>
       <r>     1.8325     4.2266   198.1992 </r>
       <r>     2.1217     0.7789   198.4244 </r>
       <r>     2.4108     8.6516   200.9260 </r>
       <r>     2.7000     4.5562   202.2434 </r>
       <r>     2.9891     6.4917   204.1204 </r>
       <r>     3.2782     2.8586   204.9470 </r>
       <r>     3.5674    10.3128   207.9289 </r>
       <r>     3.8565    14.2964   212.0626 </r>
       <r>     4.1457    15.2208   216.4636 </r>
       <r>     4.4348    23.8181   223.3505 </r>
       <r>     4.7240    39.6498   234.8150 </r>
       <r>     5.0131    26.8289   242.5725 </r>
       <r>     5.3023    51.4863   257.4595 </r>
       <r>     5.5914    51.5966   272.3784 </r>
       <r>     5.8805    43.9208   285.0778 </r>
       <r>     6.1697    46.5411   298.5350 </r>
       <r>     6.4588    57.6323   315.1990 </r>
       <r>     6.7480    65.8315   334.2339 </r>
       <r>     7.0371    77.0747   356.5196 </r>
       <r>     7.3263    85.0435   381.1095 </r>
       <r>     7.6154    62.9042   399.2979 </r>
       <r>     7.9046    56.0593   415.5072 </r>
       <r>     8.1937    81.0239   438.9348 </r>
       <r>     8.4828    54.0731   454.5698 </r>
       <r>     8.7720    75.2554   476.3295 </r>
       <r>     9.0611    79.6273   499.3533 </r>
       <r>     9.3503    86.5312   524.3734 </r>
       <r>     9.6394    26.1010   531.9203 </r>
       <r>     9.9286    16.5097   536.6940 </r>
       <r>    10.2177     6.9542   538.7048 </r>
       <r>    10.5069     4.4070   539.9791 </r>
       <r>    10.7960    12.4824   543.5883 </r>
       <r>    11.0851    11.5344   546.9234 </r>
       <r>    11.3743    12.4264   550.5164 </r>
       <r>    11.6634     4.1016   551.7024 </r>
       <r>    11.9526     7.5735   553.8922 </r>
       <r>    12.2417     7.9798   556.1995 </r>
       <r>    12.5309     7.3077   558.3125 </r>
       <r>    12.8200    12.4670   561.9173 </r>
       <r>    13.1092     2.4655   562.6302 </r>
       <r>    13.3983     8.5072   565.0900 </r>
       <r>    13.6875     9.3728   567.8000 </r>
       <r>    13.9766    -0.1094   567.7684 </r>
       <r>    14.2657     0.4196   567.8897 </r>
       <r>    14.5549    11.9875   571.3558 </r>
       <r>    14.8440     2.7520   572.1516 </r>
       <r>    15.1332     3.2239   573.0837 </r>
       <r>    15.4223     3.8794   574.2054 </r>
       <r>    15.7115     6.3611   576.0447 </r>
       <r>    16.0006     6.1324   577.8179 </r>
       <r>    16.2898     9.2455   580.4912 </r>
       <r>    16.5789     9.0901   583.1195 </r>
       <r>    16.8680     8.3279   585.5275 </r>
       <r>    17.1572     9.9408   588.4018 </r>
       <r>    17.4463     8.3615   590.8195 </r>
       <r>    17.7355     7.6911   593.0434 </r>
       <r>    18.0246    12.1937   596.5691 </r>
       <r>    18.3138     6.9400   598.5758 </r>
       <r>    18.6029     3.2609   599.5186 </r>
       <r>    18.8921     8.0763   601.8539 </r>
       <r>    19.1812     6.5020   603.7339 </r>
       <r>    19.4703     9.4371   606.4626 </r>
       <r>    19.7595     4.6716   607.8134 </r>
       <r>    20.0486    12.9655   611.5623 </r>
       <r>    20.3378     6.8942   613.5557 </r>
       <r>    20.6269    13.1971   617.3715 </r>
       <r>    20.9161    18.4543   622.7075 </r>
       <r>    21.2052     7.6001   624.9051 </r>
       <r>    21.4944    11.2784   628.1661 </r>
       <r>    21.7835    12.3589   631.7397 </r>
       <r>    22.0726    11.0725   634.9412 </r>
       <r>    22.3618     1.6746   635.4254 </r>
       <r>    22.6509    13.5624   639.3469 </r>
       <r>    22.9401    15.7349   643.8966 </r>
       <r>    23.2292     7.6617   646.1119 </r>
       <r>    23.5184     3.3819   647.0898 </r>
       <r>    23.8075     3.2393   648.0264 </r>
       <r>    24.0967    -0.0851   648.0018 </r>
       <r>    24.3858    -0.0061   648.0000 </r>
       <r>    24.6750    -0.0000   648.0000 </r>
       <r>    24.9641    -0.0000   648.0000 </r>
       <r>    25.2532     0.0000   648.0000 </r>
       <r>    25.5424     0.0000   648.0000 </r>
       <r>    25.8315     0.0000   648.0000 </r>
       <r>    26.1207     0.0000   648.0000 </r>
       <r>    26.4098     0.0000   648.0000 </r>
       <r>    26.6990     0.0000   648.0000 </r>
       <r>    26.9881     0.0000   648.0000 </r>
       <r>    27.2773     0.0000   648.0000 </r>
       <r>    27.5664     0.0000   648.0000 </r>
      </set>
     </set>
    </array>
   </total>
  </dos>
 </calculation>
 <structure name="finalpos" >
  <crystal>
   <varray name="basis" >
    <v>       0.00000000       6.83850000       6.83850000 </v>
    <v>       6.83850000       0.00000000       6.83850000 </v>
    <v>       6.83850000       6.83850000       0.00000000 </v>
   </varray>
   <i name="volume">    639.60602993 </i>
   <varray name="rec_basis" >
    <v>      -0.07311545       0.07311545       0.07311545 </v>
    <v>       0.07311545      -0.07311545       0.07311545 </v>
    <v>       0.07311545       0.07311545      -0.07311545 </v>
   </varray>
  </crystal>
  <varray name="positions" >
   <v>       0.00000000       0.00000000       0.00000000 </v>
   <v>       0.00000000       0.00000000       0.25000000 </v>
   <v>       0.00000000       0.00000000       0.50000000 </v>
   <v>       0.00000000       0.00000000       0.75000000 </v>
   <v>       0.00000000       0.25000000       0.00000000 </v>
   <v>       0.00000000       0.25000000       0.25000000 </v>
   <v>       0.00000000       0.25000000       0.50000000 </v>
   <v>       0.00000000       0.25000000       0.75000000 </v>
   <v>       0.00000000       0.50000000       0.00000000 </v>
   <v>       0.00000000       0.50000000       0.25000000 </v>
   <v>       0.00000000       0.50000000       0.50000000 </v>
   <v>       0.00000000       0.50000000       0.75000000 </v>
   <v>       0.00000000       0.75000000       0.00000000 </v>
   <v>       0.00000000       0.75000000       0.25000000 </v>
   <v>       0.00000000       0.75000000       0.50000000 </v>
   <v>       0.00000000       0.75000000       0.75000000 </v>
   <v>       0.25000000       0.00000000       0.00000000 </v>
   <v>       0.25000000       0.00000000       0.25000000 </v>
   <v>       0.25000000       0.00000000       0.50000000 </v>
   <v>       0.25000000       0.00000000       0.75000000 </v>
   <v>       0.25000000       0.25000000       0.00000000 </v>
   <v>       0.25000000       0.25000000       0.25000000 </v>
   <v>       0.25000000       0.25000000       0.50000000 </v>
   <v>       0.25000000       0.25000000       0.75000000 </v>
   <v>       0.25000000       0.50000000       0.00000000 </v>
   <v>       0.25000000       0.50000000       0.25000000 </v>
   <v>       0.25000000       0.50000000       0.50000000 </v>
   <v>       0.25000000       0.50000000       0.75000000 </v>
   <v>       0.25000000       0.75000000       0.00000000 </v>
   <v>       0.25000000       0.75000000       0.25000000 </v>
   <v>       0.25000000       0.75000000       0.50000000 </v>
   <v>       0.25000000       0.75000000       0.75000000 </v>
   <v>       0.50000000       0.00000000       0.00000000 </v>
   <v>       0.50000000       0.00000000       0.25000000 </v>
   <v>       0.50000000       0.00000000       0.50000000 </v>
   <v>       0.50000000       0.00000000       0.75000000 </v>
   <v>       0.50000000       0.25000000       0.00000000 </v>
   <v>       0.50000000       0.25000000       0.25000000 </v>
   <v>       0.50000000       0.25000000       0.50000000 </v>
   <v>       0.50000000       0.25000000       0.75000000 </v>
   <v>       0.50000000       0.50000000       0.00000000 </v>
   <v>       0.50000000       0.50000000       0.25000000 </v>
   <v>       0.50000000       0.50000000       0.50000000 </v>
   <v>       0.50000000       0.50000000       0.75000000 </v>
   <v>       0.50000000       0.75000000       0.00000000 </v>
   <v>       0.50000000       0.75000000       0.25000000 </v>
   <v>       0.50000000       0.75000000       0.50000000 </v>
   <v>       0.50000000       0.75000000       0.75000000 </v>
   <v>       0.75000000       0.00000000       0.00000000 </v>
   <v>       0.75000000       0.00000000       0.25000000 </v>
   <v>       0.75000000       0.00000000       0.50000000 </v>
   <v>       0.75000000       0.00000000       0.75000000 </v>
   <v>       0.75000000       0.25000000       0.00000000 </v>
   <v>       0.75000000       0.25000000       0.25000000 </v>
   <v>       0.75000000       0.25000000       0.50000000 </v>
   <v>       0.75000000       0.25000000       0.75000000 </v>
   <v>       0.75000000       0.50000000       0.00000000 </v>
   <v>       0.75000000       0.50000000       0.25000000 </v>
   <v>       0.75000000       0.50000000       0.50000000 </v>
   <v>       0.75000000       0.50000000       0.75000000 </v>
   <v>       0.75000000       0.75000000       0.00000000 </v>
   <v>       0.75000000       0.75000000       0.25000000 </v>
   <v>       0.75000000       0.75000000       0.50000000 </v>
   <v>       0.75000000       0.75000000       0.75000000 </v>
  </varray>
 </structure>
</modeling>
