       N       E                     dE             d eps       ncg     rms          rms(c)
DAV:   1     0.140805286228E+05    0.14081E+05   -0.53598E+05 11936   0.194E+03
DAV:   2     0.855284838676E+03   -0.13225E+05   -0.12800E+05 10336   0.649E+02
DAV:   3    -0.366763874583E+03   -0.12220E+04   -0.10120E+04 10624   0.205E+02
DAV:   4    -0.429797505322E+03   -0.63034E+02   -0.61635E+02 11032   0.476E+01
DAV:   5    -0.430710662458E+03   -0.91316E+00   -0.91272E+00 10952   0.532E+00    0.676E+01
DAV:   6    -0.391071700230E+03    0.39639E+02   -0.56233E+02 10836   0.689E+01    0.441E+01
DAV:   7    -0.367391109312E+03    0.23681E+02   -0.98094E+01 10784   0.291E+01    0.571E+00
DAV:   8    -0.367340633954E+03    0.50475E-01   -0.92620E-01 10976   0.202E+00    0.268E+00
DAV:   9    -0.367239073839E+03    0.10156E+00   -0.14251E-01 11226   0.685E-01    0.693E-01
DAV:  10    -0.367242363260E+03   -0.32894E-02   -0.88066E-03 11500   0.169E-01    0.252E-01
DAV:  11    -0.367244378384E+03   -0.20151E-02   -0.32860E-03 10830   0.127E-01    0.835E-02
DAV:  12    -0.367244411694E+03   -0.33310E-04   -0.37504E-04 10864   0.438E-02    0.256E-02
DAV:  13    -0.367244411652E+03    0.41648E-07   -0.17386E-05  9634   0.863E-03    0.195E-02
DAV:  14    -0.367244385688E+03    0.25964E-04   -0.83945E-06  9094   0.781E-03    0.474E-03
DAV:  15    -0.367244380899E+03    0.47891E-05   -0.75235E-07  5420   0.234E-03    0.123E-03
DAV:  16    -0.367244381209E+03   -0.31028E-06   -0.11404E-07  5404   0.866E-04
   1 F= -.36724438E+03 E0= -.36718148E+03  d E =-.188709E+00  mag=    41.8968
 Found     1 degrees of freedom:
       N       E                     dE             d eps       ncg     rms          rms(c)
DAV:   1    -0.366917718149E+03    0.32666E+00   -0.95520E+00 20460   0.296E+01    0.998E-01
DAV:   2    -0.367252146046E+03   -0.33443E+00   -0.31801E+00 16038   0.300E+00    0.277E+00
DAV:   3    -0.367244058269E+03    0.80878E-02   -0.14834E-01 19264   0.171E+00    0.129E+00
DAV:   4    -0.367248384654E+03   -0.43264E-02   -0.24225E-02 19056   0.111E+00    0.172E+00
DAV:   5    -0.367240392066E+03    0.79926E-02   -0.78400E-03 16784   0.798E-01    0.394E-01
DAV:   6    -0.367240214505E+03    0.17756E-03   -0.11724E-03 18800   0.188E-01    0.285E-01
DAV:   7    -0.367240030277E+03    0.18423E-03   -0.29087E-04 17304   0.116E-01    0.262E-01
DAV:   8    -0.367239879412E+03    0.15087E-03   -0.26323E-04 17424   0.137E-01    0.243E-01
DAV:   9    -0.367239943213E+03   -0.63801E-04   -0.53119E-04 17512   0.204E-01    0.348E-01
DAV:  10    -0.367239589804E+03    0.35341E-03   -0.54359E-04 20144   0.194E-01    0.168E-01
DAV:  11    -0.367239523859E+03    0.65944E-04   -0.17664E-04 20016   0.871E-02    0.395E-02
DAV:  12    -0.367239535319E+03   -0.11460E-04   -0.45735E-05 20496   0.428E-02    0.578E-02
DAV:  13    -0.367239525796E+03    0.95232E-05   -0.21151E-05 16696   0.369E-02    0.150E-02
DAV:  14    -0.367239528845E+03   -0.30491E-05   -0.44737E-06 13912   0.189E-02    0.339E-02
DAV:  15    -0.367239526025E+03    0.28203E-05   -0.29245E-06 10392   0.168E-02    0.747E-03
DAV:  16    -0.367239526509E+03   -0.48467E-06   -0.10021E-06  8072   0.817E-03
   2 F= -.36723953E+03 E0= -.36717667E+03  d E =-.188578E+00  mag=    41.8969
       N       E                     dE             d eps       ncg     rms          rms(c)
DAV:   1    -0.367100098088E+03    0.13943E+00   -0.46179E+00 20668   0.178E+01    0.356E-01
DAV:   2    -0.367243252203E+03   -0.14315E+00   -0.13934E+00 15862   0.185E+00    0.127E+00
DAV:   3    -0.367243229933E+03    0.22270E-04   -0.48672E-02 19296   0.800E-01    0.348E-01
DAV:   4    -0.367244322672E+03   -0.10927E-02   -0.46304E-03 19592   0.416E-01    0.636E-01
DAV:   5    -0.367243261136E+03    0.10615E-02   -0.13589E-03 16752   0.312E-01    0.145E-01
DAV:   6    -0.367243227537E+03    0.33599E-04   -0.17445E-04 18248   0.830E-02    0.888E-02
DAV:   7    -0.367243208209E+03    0.19328E-04   -0.61588E-05 17784   0.597E-02    0.936E-02
DAV:   8    -0.367243186502E+03    0.21706E-04   -0.70729E-05 17584   0.728E-02    0.834E-02
DAV:   9    -0.367243224559E+03   -0.38057E-04   -0.10217E-04 18144   0.907E-02    0.146E-01
DAV:  10    -0.367243165739E+03    0.58820E-04   -0.81553E-05 17992   0.777E-02    0.557E-02
DAV:  11    -0.367243158857E+03    0.68818E-05   -0.20723E-05 20032   0.295E-02    0.139E-02
DAV:  12    -0.367243160228E+03   -0.13706E-05   -0.52366E-06 15072   0.159E-02    0.212E-02
DAV:  13    -0.367243158812E+03    0.14156E-05   -0.24233E-06  9744   0.132E-02    0.449E-03
DAV:  14    -0.367243159062E+03   -0.24922E-06   -0.43224E-07  8064   0.557E-03
   3 F= -.36724316E+03 E0= -.36718027E+03  d E =-.188657E+00  mag=    41.8968
       N       E                     dE             d eps       ncg     rms          rms(c)
DAV:   1    -0.366955422528E+03    0.28774E+00   -0.84600E+00 20608   0.261E+01    0.920E-01
DAV:   2    -0.367253476861E+03   -0.29805E+00   -0.28365E+00 16104   0.281E+00    0.258E+00
DAV:   3    -0.367246898587E+03    0.65783E-02   -0.12896E-01 18512   0.161E+00    0.118E+00
DAV:   4    -0.367250598344E+03   -0.36998E-02   -0.20877E-02 19352   0.102E+00    0.157E+00
DAV:   5    -0.367243889784E+03    0.67086E-02   -0.67409E-03 16764   0.733E-01    0.357E-01
DAV:   6    -0.367243743771E+03    0.14601E-03   -0.10062E-03 19120   0.173E-01    0.259E-01
DAV:   7    -0.367243578588E+03    0.16518E-03   -0.25460E-04 17284   0.111E-01    0.239E-01
DAV:   8    -0.367243457238E+03    0.12135E-03   -0.26483E-04 17488   0.138E-01    0.230E-01
DAV:   9    -0.367243546261E+03   -0.89023E-04   -0.53309E-04 17704   0.203E-01    0.342E-01
DAV:  10    -0.367243212906E+03    0.33335E-03   -0.50367E-04 19496   0.187E-01    0.155E-01
DAV:  11    -0.367243156442E+03    0.56464E-04   -0.15487E-04 20056   0.814E-02    0.341E-02
DAV:  12    -0.367243166959E+03   -0.10517E-04   -0.38590E-05 19752   0.393E-02    0.532E-02
DAV:  13    -0.367243158754E+03    0.82046E-05   -0.17789E-05 16704   0.339E-02    0.136E-02
DAV:  14    -0.367243160953E+03   -0.21988E-05   -0.34642E-06 12144   0.168E-02    0.296E-02
DAV:  15    -0.367243158757E+03    0.21967E-05   -0.23630E-06  9824   0.148E-02    0.620E-03
DAV:  16    -0.367243159143E+03   -0.38638E-06   -0.81939E-07  8064   0.724E-03
   4 F= -.36724316E+03 E0= -.36718027E+03  d E =-.188656E+00  mag=    41.8969
       N       E                     dE             d eps       ncg     rms          rms(c)
DAV:   1    -0.367091296370E+03    0.15186E+00   -0.45553E+00 20600   0.179E+01    0.541E-01
DAV:   2    -0.367239990918E+03   -0.14869E+00   -0.14557E+00 15896   0.190E+00    0.132E+00
DAV:   3    -0.367241278311E+03   -0.12874E-02   -0.57828E-02 19074   0.998E-01    0.812E-01
DAV:   4    -0.367241815735E+03   -0.53742E-03   -0.80497E-03 18752   0.592E-01    0.863E-01
DAV:   5    -0.367239789738E+03    0.20260E-02   -0.20261E-03 16832   0.407E-01    0.200E-01
DAV:   6    -0.367239753318E+03    0.36420E-04   -0.31136E-04 18920   0.906E-02    0.160E-01
DAV:   7    -0.367239689615E+03    0.63703E-04   -0.69150E-05 17120   0.576E-02    0.143E-01
DAV:   8    -0.367239649393E+03    0.40221E-04   -0.66313E-05 17440   0.705E-02    0.137E-01
DAV:   9    -0.367239630453E+03    0.18940E-04   -0.14055E-04 17968   0.108E-01    0.172E-01
DAV:  10    -0.367239526699E+03    0.10375E-03   -0.12678E-04 19744   0.935E-02    0.382E-02
DAV:  11    -0.367239529341E+03   -0.26420E-05   -0.37154E-05 20120   0.320E-02    0.398E-02
DAV:  12    -0.367239528033E+03    0.13084E-05   -0.12006E-05 17144   0.247E-02    0.278E-02
DAV:  13    -0.367239525950E+03    0.20828E-05   -0.48228E-06 15384   0.173E-02    0.815E-03
DAV:  14    -0.367239526361E+03   -0.41092E-06   -0.84036E-07  8272   0.788E-03
   5 F= -.36723953E+03 E0= -.36717667E+03  d E =-.188578E+00  mag=    41.8968
