 vasp.5.4.1 05Feb16 (build Oct 12 2016 17:31:35) complex                        
  
 executed on           IFC91_ompi date 2020.09.08  14:24:48
 running on    1 total cores
 distrk:  each k-point on    1 cores,    1 groups
 distr:  one band on NCORES_PER_BAND=   1 cores,    1 groups


--------------------------------------------------------------------------------------------------------


 INCAR:
 POTCAR:   PAW_PBE Ni_pv 06Sep2000                
 POTCAR:   PAW_PBE Ni_pv 06Sep2000                
  local pseudopotential read in
  partial core-charges read in
  atomic valenz-charges read in
  non local Contribution for L=           1  read in
    real space projection operators read in
  non local Contribution for L=           1  read in
    real space projection operators read in
  non local Contribution for L=           2  read in
    real space projection operators read in
  non local Contribution for L=           2  read in
    real space projection operators read in
  non local Contribution for L=           0  read in
    real space projection operators read in
  non local Contribution for L=           0  read in
    real space projection operators read in
    PAW grid and wavefunctions read in
 
   number of l-projection  operators is LMAX  =           6
   number of lm-projection operators is LMMAX =          18
 
 Optimization of the real space projectors (new method)

 maximal supplied QI-value         = 18.90
 optimisation between [QCUT,QGAM] = [  9.83, 19.65] = [ 27.04,108.16] Ry 
 Optimized for a Real-space Cutoff    1.44 Angstroem

   l    n(q)    QCUT    max X(q) W(low)/X(q) W(high)/X(q)  e(spline) 
   1      8     9.827     3.231    0.38E-04    0.39E-04    0.57E-07
   1      8     9.827     4.241    0.57E-04    0.19E-03    0.30E-06
   2      7     9.827     3.566    0.29E-04    0.66E-04    0.48E-07
   2      7     9.827    20.429    0.17E-03    0.37E-03    0.30E-06
   0      8     9.827    19.799    0.18E-04    0.76E-05    0.78E-08
   0      8     9.827    52.283    0.39E-04    0.68E-04    0.44E-07
 PAW_PBE Ni_pv 06Sep2000                :
 energy of atom  1       EATOM=-3500.3496
 kinetic energy error for atom=    0.1419 (will be added to EATOM!!)
 
 
 POSCAR: Supercell by Yi Wang                    
  positions in direct lattice
  No initial velocities read in
 exchange correlation table for  LEXCH =        8
   RHO(1)=    0.500       N(1)  =     2000
   RHO(2)=  100.500       N(2)  =     4000
 


--------------------------------------------------------------------------------------------------------


 ion  position               nearest neighbor table
   1  0.000  0.000  0.000-   2 2.46   4 2.46   5 2.46   8 2.46  13 2.46  14 2.46  17 2.46  20 2.46
                            29 2.46  49 2.46  50 2.46  53 2.46
   2  0.000  0.000  0.250-   1 2.46   3 2.46   5 2.46   6 2.46  14 2.46  15 2.46  17 2.46  18 2.46
                            30 2.46  50 2.46  51 2.46  54 2.46
   3  0.000  0.000  0.500-   2 2.46   4 2.46   6 2.46   7 2.46  15 2.46  16 2.46  18 2.46  19 2.46
                            31 2.46  51 2.46  52 2.46  55 2.46
   4  0.000  0.000  0.750-   1 2.46   3 2.46   7 2.46   8 2.46  13 2.46  16 2.46  19 2.46  20 2.46
                            32 2.46  49 2.46  52 2.46  56 2.46
   5  0.000  0.250  0.000-   1 2.46   2 2.46   6 2.46   8 2.46   9 2.46  12 2.46  17 2.46  21 2.46
                            24 2.46  53 2.46  54 2.46  57 2.46
   6  0.000  0.250  0.250-   2 2.46   3 2.46   5 2.46   7 2.46   9 2.46  10 2.46  18 2.46  21 2.46
                            22 2.46  54 2.46  55 2.46  58 2.46
   7  0.000  0.250  0.500-   3 2.46   4 2.46   6 2.46   8 2.46  10 2.46  11 2.46  19 2.46  22 2.46
                            23 2.46  55 2.46  56 2.46  59 2.46
   8  0.000  0.250  0.750-   1 2.46   4 2.46   5 2.46   7 2.46  11 2.46  12 2.46  20 2.46  23 2.46
                            24 2.46  53 2.46  56 2.46  60 2.46
   9  0.000  0.500  0.000-   5 2.46   6 2.46  10 2.46  12 2.46  13 2.46  16 2.46  21 2.46  25 2.46
                            28 2.46  57 2.46  58 2.46  61 2.46
  10  0.000  0.500  0.250-   6 2.46   7 2.46   9 2.46  11 2.46  13 2.46  14 2.46  22 2.46  25 2.46
                            26 2.46  58 2.46  59 2.46  62 2.46
  11  0.000  0.500  0.500-   7 2.46   8 2.46  10 2.46  12 2.46  14 2.46  15 2.46  23 2.46  26 2.46
                            27 2.46  59 2.46  60 2.46  63 2.46
  12  0.000  0.500  0.750-   5 2.46   8 2.46   9 2.46  11 2.46  15 2.46  16 2.46  24 2.46  27 2.46
                            28 2.46  57 2.46  60 2.46  64 2.46
  13  0.000  0.750  0.000-   1 2.46   4 2.46   9 2.46  10 2.46  14 2.46  16 2.46  25 2.46  29 2.46
                            32 2.46  49 2.46  61 2.46  62 2.46
  14  0.000  0.750  0.250-   1 2.46   2 2.46  10 2.46  11 2.46  13 2.46  15 2.46  26 2.46  29 2.46
                            30 2.46  50 2.46  62 2.46  63 2.46
  15  0.000  0.750  0.500-   2 2.46   3 2.46  11 2.46  12 2.46  14 2.46  16 2.46  27 2.46  30 2.46
                            31 2.46  51 2.46  63 2.46  64 2.46
  16  0.000  0.750  0.750-   3 2.46   4 2.46   9 2.46  12 2.46  13 2.46  15 2.46  28 2.46  31 2.46
                            32 2.46  52 2.46  61 2.46  64 2.46
  17  0.250  0.000  0.000-   1 2.46   2 2.46   5 2.46  18 2.46  20 2.46  21 2.46  24 2.46  29 2.46
                            30 2.46  33 2.46  36 2.46  45 2.46
  18  0.250  0.000  0.250-   2 2.46   3 2.46   6 2.46  17 2.46  19 2.46  21 2.46  22 2.46  30 2.46
                            31 2.46  33 2.46  34 2.46  46 2.46
  19  0.250  0.000  0.500-   3 2.46   4 2.46   7 2.46  18 2.46  20 2.46  22 2.46  23 2.46  31 2.46
                            32 2.46  34 2.46  35 2.46  47 2.46
  20  0.250  0.000  0.750-   1 2.46   4 2.46   8 2.46  17 2.46  19 2.46  23 2.46  24 2.46  29 2.46
                            32 2.46  35 2.46  36 2.46  48 2.46
  21  0.250  0.250  0.000-   5 2.46   6 2.46   9 2.46  17 2.46  18 2.46  22 2.46  24 2.46  25 2.46
                            28 2.46  33 2.46  37 2.46  40 2.46
  22  0.250  0.250  0.250-   6 2.46   7 2.46  10 2.46  18 2.46  19 2.46  21 2.46  23 2.46  25 2.46
                            26 2.46  34 2.46  37 2.46  38 2.46
  23  0.250  0.250  0.500-   7 2.46   8 2.46  11 2.46  19 2.46  20 2.46  22 2.46  24 2.46  26 2.46
                            27 2.46  35 2.46  38 2.46  39 2.46
  24  0.250  0.250  0.750-   5 2.46   8 2.46  12 2.46  17 2.46  20 2.46  21 2.46  23 2.46  27 2.46
                            28 2.46  36 2.46  39 2.46  40 2.46
  25  0.250  0.500  0.000-   9 2.46  10 2.46  13 2.46  21 2.46  22 2.46  26 2.46  28 2.46  29 2.46
                            32 2.46  37 2.46  41 2.46  44 2.46
  26  0.250  0.500  0.250-  10 2.46  11 2.46  14 2.46  22 2.46  23 2.46  25 2.46  27 2.46  29 2.46
                            30 2.46  38 2.46  41 2.46  42 2.46
  27  0.250  0.500  0.500-  11 2.46  12 2.46  15 2.46  23 2.46  24 2.46  26 2.46  28 2.46  30 2.46
                            31 2.46  39 2.46  42 2.46  43 2.46
  28  0.250  0.500  0.750-   9 2.46  12 2.46  16 2.46  21 2.46  24 2.46  25 2.46  27 2.46  31 2.46
                            32 2.46  40 2.46  43 2.46  44 2.46
  29  0.250  0.750  0.000-   1 2.46  13 2.46  14 2.46  17 2.46  20 2.46  25 2.46  26 2.46  30 2.46
                            32 2.46  41 2.46  45 2.46  48 2.46
  30  0.250  0.750  0.250-   2 2.46  14 2.46  15 2.46  17 2.46  18 2.46  26 2.46  27 2.46  29 2.46
                            31 2.46  42 2.46  45 2.46  46 2.46
  31  0.250  0.750  0.500-   3 2.46  15 2.46  16 2.46  18 2.46  19 2.46  27 2.46  28 2.46  30 2.46
                            32 2.46  43 2.46  46 2.46  47 2.46
  32  0.250  0.750  0.750-   4 2.46  13 2.46  16 2.46  19 2.46  20 2.46  25 2.46  28 2.46  29 2.46
                            31 2.46  44 2.46  47 2.46  48 2.46
  33  0.500  0.000  0.000-  17 2.46  18 2.46  21 2.46  34 2.46  36 2.46  37 2.46  40 2.46  45 2.46
                            46 2.46  49 2.46  52 2.46  61 2.46
  34  0.500  0.000  0.250-  18 2.46  19 2.46  22 2.46  33 2.46  35 2.46  37 2.46  38 2.46  46 2.46
                            47 2.46  49 2.46  50 2.46  62 2.46
  35  0.500  0.000  0.500-  19 2.46  20 2.46  23 2.46  34 2.46  36 2.46  38 2.46  39 2.46  47 2.46
                            48 2.46  50 2.46  51 2.46  63 2.46
  36  0.500  0.000  0.750-  17 2.46  20 2.46  24 2.46  33 2.46  35 2.46  39 2.46  40 2.46  45 2.46
                            48 2.46  51 2.46  52 2.46  64 2.46
  37  0.500  0.250  0.000-  21 2.46  22 2.46  25 2.46  33 2.46  34 2.46  38 2.46  40 2.46  41 2.46
                            44 2.46  49 2.46  53 2.46  56 2.46
  38  0.500  0.250  0.250-  22 2.46  23 2.46  26 2.46  34 2.46  35 2.46  37 2.46  39 2.46  41 2.46
                            42 2.46  50 2.46  53 2.46  54 2.46
  39  0.500  0.250  0.500-  23 2.46  24 2.46  27 2.46  35 2.46  36 2.46  38 2.46  40 2.46  42 2.46
                            43 2.46  51 2.46  54 2.46  55 2.46
  40  0.500  0.250  0.750-  21 2.46  24 2.46  28 2.46  33 2.46  36 2.46  37 2.46  39 2.46  43 2.46
                            44 2.46  52 2.46  55 2.46  56 2.46
  41  0.500  0.500  0.000-  25 2.46  26 2.46  29 2.46  37 2.46  38 2.46  42 2.46  44 2.46  45 2.46
                            48 2.46  53 2.46  57 2.46  60 2.46
  42  0.500  0.500  0.250-  26 2.46  27 2.46  30 2.46  38 2.46  39 2.46  41 2.46  43 2.46  45 2.46
                            46 2.46  54 2.46  57 2.46  58 2.46
  43  0.500  0.500  0.500-  27 2.46  28 2.46  31 2.46  39 2.46  40 2.46  42 2.46  44 2.46  46 2.46
                            47 2.46  55 2.46  58 2.46  59 2.46
  44  0.500  0.500  0.750-  25 2.46  28 2.46  32 2.46  37 2.46  40 2.46  41 2.46  43 2.46  47 2.46
                            48 2.46  56 2.46  59 2.46  60 2.46
  45  0.500  0.750  0.000-  17 2.46  29 2.46  30 2.46  33 2.46  36 2.46  41 2.46  42 2.46  46 2.46
                            48 2.46  57 2.46  61 2.46  64 2.46
  46  0.500  0.750  0.250-  18 2.46  30 2.46  31 2.46  33 2.46  34 2.46  42 2.46  43 2.46  45 2.46
                            47 2.46  58 2.46  61 2.46  62 2.46
  47  0.500  0.750  0.500-  19 2.46  31 2.46  32 2.46  34 2.46  35 2.46  43 2.46  44 2.46  46 2.46
                            48 2.46  59 2.46  62 2.46  63 2.46
  48  0.500  0.750  0.750-  20 2.46  29 2.46  32 2.46  35 2.46  36 2.46  41 2.46  44 2.46  45 2.46
                            47 2.46  60 2.46  63 2.46  64 2.46
  49  0.750  0.000  0.000-   1 2.46   4 2.46  13 2.46  33 2.46  34 2.46  37 2.46  50 2.46  52 2.46
                            53 2.46  56 2.46  61 2.46  62 2.46
  50  0.750  0.000  0.250-   1 2.46   2 2.46  14 2.46  34 2.46  35 2.46  38 2.46  49 2.46  51 2.46
                            53 2.46  54 2.46  62 2.46  63 2.46
  51  0.750  0.000  0.500-   2 2.46   3 2.46  15 2.46  35 2.46  36 2.46  39 2.46  50 2.46  52 2.46
                            54 2.46  55 2.46  63 2.46  64 2.46
  52  0.750  0.000  0.750-   3 2.46   4 2.46  16 2.46  33 2.46  36 2.46  40 2.46  49 2.46  51 2.46
                            55 2.46  56 2.46  61 2.46  64 2.46
  53  0.750  0.250  0.000-   1 2.46   5 2.46   8 2.46  37 2.46  38 2.46  41 2.46  49 2.46  50 2.46
                            54 2.46  56 2.46  57 2.46  60 2.46
  54  0.750  0.250  0.250-   2 2.46   5 2.46   6 2.46  38 2.46  39 2.46  42 2.46  50 2.46  51 2.46
                            53 2.46  55 2.46  57 2.46  58 2.46
  55  0.750  0.250  0.500-   3 2.46   6 2.46   7 2.46  39 2.46  40 2.46  43 2.46  51 2.46  52 2.46
                            54 2.46  56 2.46  58 2.46  59 2.46
  56  0.750  0.250  0.750-   4 2.46   7 2.46   8 2.46  37 2.46  40 2.46  44 2.46  49 2.46  52 2.46
                            53 2.46  55 2.46  59 2.46  60 2.46
  57  0.750  0.500  0.000-   5 2.46   9 2.46  12 2.46  41 2.46  42 2.46  45 2.46  53 2.46  54 2.46
                            58 2.46  60 2.46  61 2.46  64 2.46
  58  0.750  0.500  0.250-   6 2.46   9 2.46  10 2.46  42 2.46  43 2.46  46 2.46  54 2.46  55 2.46
                            57 2.46  59 2.46  61 2.46  62 2.46
  59  0.750  0.500  0.500-   7 2.46  10 2.46  11 2.46  43 2.46  44 2.46  47 2.46  55 2.46  56 2.46
                            58 2.46  60 2.46  62 2.46  63 2.46
  60  0.750  0.500  0.750-   8 2.46  11 2.46  12 2.46  41 2.46  44 2.46  48 2.46  53 2.46  56 2.46
                            57 2.46  59 2.46  63 2.46  64 2.46
  61  0.750  0.750  0.000-   9 2.46  13 2.46  16 2.46  33 2.46  45 2.46  46 2.46  49 2.46  52 2.46
                            57 2.46  58 2.46  62 2.46  64 2.46
  62  0.750  0.750  0.250-  10 2.46  13 2.46  14 2.46  34 2.46  46 2.46  47 2.46  49 2.46  50 2.46
                            58 2.46  59 2.46  61 2.46  63 2.46
  63  0.750  0.750  0.500-  11 2.46  14 2.46  15 2.46  35 2.46  47 2.46  48 2.46  50 2.46  51 2.46
                            59 2.46  60 2.46  62 2.46  64 2.46
  64  0.750  0.750  0.750-  12 2.46  15 2.46  16 2.46  36 2.46  45 2.46  48 2.46  51 2.46  52 2.46
                            57 2.46  60 2.46  61 2.46  63 2.46
 
  LATTYP: Found a face centered cubic cell.
 ALAT       =    13.8885000000
  
  Lattice vectors:
  
 A1 = (   0.0000000000,   6.9442500000,   6.9442500000)
 A2 = (   6.9442500000,   0.0000000000,   6.9442500000)
 A3 = (   6.9442500000,   6.9442500000,   0.0000000000)


Analysis of symmetry for initial positions (statically):
=====================================================================
 Subroutine PRICEL returns following result:
 
  LATTYP: Found a face centered cubic cell.
 ALAT       =     3.4721250000
  
  Lattice vectors:
  
 A1 = (   0.0000000000,   1.7360625000,   1.7360625000)
 A2 = (   1.7360625000,   0.0000000000,   1.7360625000)
 A3 = (   1.7360625000,   1.7360625000,   0.0000000000)
 
  64 primitive cells build up your supercell.
 

 Routine SETGRP: Setting up the symmetry group for a 
 face centered cubic supercell.


 Subroutine GETGRP returns: Found 48 space group operations
 (whereof 48 operations were pure point group operations)
 out of a pool of 48 trial point group operations.


The static configuration has the point symmetry O_h .


Analysis of symmetry for dynamics (positions and initial velocities):
=====================================================================
 Subroutine PRICEL returns following result:
 
  LATTYP: Found a face centered cubic cell.
 ALAT       =     3.4721250000
  
  Lattice vectors:
  
 A1 = (   0.0000000000,   1.7360625000,   1.7360625000)
 A2 = (   1.7360625000,   0.0000000000,   1.7360625000)
 A3 = (   1.7360625000,   1.7360625000,   0.0000000000)
 
  64 primitive cells build up your supercell.
 

 Routine SETGRP: Setting up the symmetry group for a 
 face centered cubic supercell.


 Subroutine GETGRP returns: Found 48 space group operations
 (whereof 48 operations were pure point group operations)
 out of a pool of 48 trial point group operations.


The dynamic configuration has the point symmetry O_h .


Analysis of structural, dynamic, and magnetic symmetry:
=====================================================================
 Subroutine PRICEL returns following result:
 
  LATTYP: Found a face centered cubic cell.
 ALAT       =     3.4721250000
  
  Lattice vectors:
  
 A1 = (   0.0000000000,   1.7360625000,   1.7360625000)
 A2 = (   1.7360625000,   0.0000000000,   1.7360625000)
 A3 = (   1.7360625000,   1.7360625000,   0.0000000000)
 
  64 primitive cells build up your supercell.
 

 Routine SETGRP: Setting up the symmetry group for a 
 face centered cubic supercell.


 Subroutine GETGRP returns: Found 48 space group operations
 (whereof 48 operations were pure point group operations)
 out of a pool of 48 trial point group operations.


The magnetic configuration has the point symmetry O_h .


 Subroutine INISYM returns: Found 48 space group operations
 (whereof 48 operations are pure point group operations),
 and found    64 'primitive' translations

 
 
 KPOINTS: Zr 15x15x15                             

Automatic generation of k-mesh.
Space group operators:
 irot       det(A)        alpha          n_x          n_y          n_z        tau_x        tau_y        tau_z
    1     1.000000     0.000001     1.000000     0.000000     0.000000     0.000000     0.000000     0.000000
    2    -1.000000     0.000001     1.000000     0.000000     0.000000     0.000000     0.000000     0.000000
    3     1.000000   120.000000    -0.577350    -0.577350    -0.577350     0.000000     0.000000     0.000000
    4    -1.000000   120.000000    -0.577350    -0.577350    -0.577350     0.000000     0.000000     0.000000
    5     1.000000   120.000000     0.577350     0.577350     0.577350     0.000000     0.000000     0.000000
    6    -1.000000   120.000000     0.577350     0.577350     0.577350     0.000000     0.000000     0.000000
    7     1.000000    90.000000     0.000000     0.000000    -1.000000     0.000000     0.000000     0.000000
    8    -1.000000    90.000000     0.000000     0.000000    -1.000000     0.000000     0.000000     0.000000
    9     1.000000   180.000000     0.000000     0.707107     0.707107     0.000000     0.000000     0.000000
   10    -1.000000   180.000000     0.000000     0.707107     0.707107     0.000000     0.000000     0.000000
   11     1.000000    90.000000     0.000000     1.000000     0.000000     0.000000     0.000000     0.000000
   12    -1.000000    90.000000     0.000000     1.000000     0.000000     0.000000     0.000000     0.000000
   13     1.000000   180.000000     0.000000     0.000000     1.000000     0.000000     0.000000     0.000000
   14    -1.000000   180.000000     0.000000     0.000000     1.000000     0.000000     0.000000     0.000000
   15     1.000000   120.000000    -0.577350     0.577350     0.577350     0.000000     0.000000     0.000000
   16    -1.000000   120.000000    -0.577350     0.577350     0.577350     0.000000     0.000000     0.000000
   17     1.000000   120.000000    -0.577350     0.577350    -0.577350     0.000000     0.000000     0.000000
   18    -1.000000   120.000000    -0.577350     0.577350    -0.577350     0.000000     0.000000     0.000000
   19     1.000000    90.000000     0.000000     0.000000     1.000000     0.000000     0.000000     0.000000
   20    -1.000000    90.000000     0.000000     0.000000     1.000000     0.000000     0.000000     0.000000
   21     1.000000    90.000000    -1.000000     0.000000     0.000000     0.000000     0.000000     0.000000
   22    -1.000000    90.000000    -1.000000     0.000000     0.000000     0.000000     0.000000     0.000000
   23     1.000000   180.000000     0.707107     0.000000     0.707107     0.000000     0.000000     0.000000
   24    -1.000000   180.000000     0.707107     0.000000     0.707107     0.000000     0.000000     0.000000
   25     1.000000   120.000000     0.577350    -0.577350     0.577350     0.000000     0.000000     0.000000
   26    -1.000000   120.000000     0.577350    -0.577350     0.577350     0.000000     0.000000     0.000000
   27     1.000000   120.000000    -0.577350    -0.577350     0.577350     0.000000     0.000000     0.000000
   28    -1.000000   120.000000    -0.577350    -0.577350     0.577350     0.000000     0.000000     0.000000
   29     1.000000   180.000000     1.000000     0.000000     0.000000     0.000000     0.000000     0.000000
   30    -1.000000   180.000000     1.000000     0.000000     0.000000     0.000000     0.000000     0.000000
   31     1.000000    90.000000     0.000000    -1.000000     0.000000     0.000000     0.000000     0.000000
   32    -1.000000    90.000000     0.000000    -1.000000     0.000000     0.000000     0.000000     0.000000
   33     1.000000   180.000000     0.707107     0.707107     0.000000     0.000000     0.000000     0.000000
   34    -1.000000   180.000000     0.707107     0.707107     0.000000     0.000000     0.000000     0.000000
   35     1.000000    90.000000     1.000000     0.000000     0.000000     0.000000     0.000000     0.000000
   36    -1.000000    90.000000     1.000000     0.000000     0.000000     0.000000     0.000000     0.000000
   37     1.000000   120.000000     0.577350    -0.577350    -0.577350     0.000000     0.000000     0.000000
   38    -1.000000   120.000000     0.577350    -0.577350    -0.577350     0.000000     0.000000     0.000000
   39     1.000000   180.000000     0.000000     1.000000     0.000000     0.000000     0.000000     0.000000
   40    -1.000000   180.000000     0.000000     1.000000     0.000000     0.000000     0.000000     0.000000
   41     1.000000   120.000000     0.577350     0.577350    -0.577350     0.000000     0.000000     0.000000
   42    -1.000000   120.000000     0.577350     0.577350    -0.577350     0.000000     0.000000     0.000000
   43     1.000000   180.000000     0.000000    -0.707107     0.707107     0.000000     0.000000     0.000000
   44    -1.000000   180.000000     0.000000    -0.707107     0.707107     0.000000     0.000000     0.000000
   45     1.000000   180.000000     0.707107    -0.707107     0.000000     0.000000     0.000000     0.000000
   46    -1.000000   180.000000     0.707107    -0.707107     0.000000     0.000000     0.000000     0.000000
   47     1.000000   180.000000     0.707107     0.000000    -0.707107     0.000000     0.000000     0.000000
   48    -1.000000   180.000000     0.707107     0.000000    -0.707107     0.000000     0.000000     0.000000
 
 Subroutine IBZKPT returns following result:
 ===========================================
 
 Found      4 irreducible k-points:
 
 Following reciprocal coordinates:
            Coordinates               Weight
  0.000000  0.000000  0.000000      1.000000
  0.333333  0.000000  0.000000      8.000000
  0.333333  0.333333  0.000000      6.000000
 -0.333333  0.333333  0.000000     12.000000
 
 Following cartesian coordinates:
            Coordinates               Weight
  0.000000  0.000000  0.000000      1.000000
 -0.024001  0.024001  0.024001      8.000000
  0.000000  0.000000  0.048001      6.000000
  0.048001 -0.048001  0.000000     12.000000
 
 
 Subroutine IBZKPT_HF returns following result:
 ==============================================
 
 Found     27 k-points in 1st BZ
 the following     27 k-points will be used (e.g. in the exchange kernel)
 Following reciprocal coordinates:   # in IRBZ
  0.000000  0.000000  0.000000    0.03703704   1 t-inv F
  0.333333  0.000000  0.000000    0.03703704   2 t-inv F
  0.333333  0.333333  0.000000    0.03703704   3 t-inv F
 -0.333333  0.333333  0.000000    0.03703704   4 t-inv F
 -0.333333  0.000000  0.000000    0.03703704   2 t-inv F
  0.000000  0.333333  0.000000    0.03703704   2 t-inv F
  0.000000 -0.333333  0.000000    0.03703704   2 t-inv F
  0.000000  0.000000  0.333333    0.03703704   2 t-inv F
  0.000000  0.000000 -0.333333    0.03703704   2 t-inv F
  0.333333  0.333333  0.333333    0.03703704   2 t-inv F
 -0.333333 -0.333333 -0.333333    0.03703704   2 t-inv F
 -0.333333 -0.333333  0.000000    0.03703704   3 t-inv F
  0.000000  0.333333  0.333333    0.03703704   3 t-inv F
  0.000000 -0.333333 -0.333333    0.03703704   3 t-inv F
  0.333333  0.000000  0.333333    0.03703704   3 t-inv F
 -0.333333  0.000000 -0.333333    0.03703704   3 t-inv F
  0.333333 -0.333333  0.000000    0.03703704   4 t-inv F
  0.000000 -0.333333  0.333333    0.03703704   4 t-inv F
  0.000000  0.333333 -0.333333    0.03703704   4 t-inv F
  0.333333  0.000000 -0.333333    0.03703704   4 t-inv F
 -0.333333  0.000000  0.333333    0.03703704   4 t-inv F
  0.333333  0.333333  0.666667    0.03703704   4 t-inv F
 -0.333333 -0.333333 -0.666667    0.03703704   4 t-inv F
 -0.333333 -0.666667 -0.333333    0.03703704   4 t-inv F
  0.333333  0.666667  0.333333    0.03703704   4 t-inv F
 -0.666667 -0.333333 -0.333333    0.03703704   4 t-inv F
  0.666667  0.333333  0.333333    0.03703704   4 t-inv F


--------------------------------------------------------------------------------------------------------




 Dimension of arrays:
   k-points           NKPTS =      4   k-points in BZ     NKDIM =      4   number of bands    NBANDS=    646
   number of dos      NEDOS =    301   number of ions     NIONS =     64
   non local maximal  LDIM  =      6   non local SUM 2l+1 LMDIM =     18
   total plane-waves  NPLWV = 262144
   max r-space proj   IRMAX =   4939   max aug-charges    IRDMAX=   8840
   dimension x,y,z NGX =    64 NGY =   64 NGZ =   64
   dimension x,y,z NGXF=   128 NGYF=  128 NGZF=  128
   support grid    NGXF=   128 NGYF=  128 NGZF=  128
   ions per type =              64
 NGX,Y,Z   is equivalent  to a cutoff of  10.83, 10.83, 10.83 a.u.
 NGXF,Y,Z  is equivalent  to a cutoff of  21.67, 21.67, 21.67 a.u.


 I would recommend the setting:
   dimension x,y,z NGX =    61 NGY =   61 NGZ =   61
 SYSTEM =  phonon of Zr bcc - omiga                
 POSCAR =  Supercell by Yi Wang                    

 Startparameter for this run:
   NWRITE =      0    write-flag & timer
   PREC   = a         normal or accurate (medium, high low for compatibility)
   ISTART =      0    job   : 0-new  1-cont  2-samecut
   ICHARG =      2    charge: 1-file 2-atom 10-const
   ISPIN  =      2    spin polarized calculation?
   LNONCOLLINEAR =      F non collinear calculations
   LSORBIT =      F    spin-orbit coupling
   INIWAV =      1    electr: 0-lowe 1-rand  2-diag
   LASPH  =      F    aspherical Exc in radial PAW
   METAGGA=      F    non-selfconsistent MetaGGA calc.

 Electronic Relaxation 1
   ENCUT  =  367.9 eV  27.04 Ry    5.20 a.u.  15.36 15.36 15.36*2*pi/ulx,y,z
   ENINI  =  367.9     initial cutoff
   ENAUG  =  703.4 eV  augmentation charge cutoff
   NELM   =     60;   NELMIN=  2; NELMDL=  0     # of ELM steps 
   EDIFF  = 0.1E-05   stopping-criterion for ELM
   LREAL  =      T    real-space projection
   NLSPLINE    = F    spline interpolate recip. space projectors
   LCOMPAT=      F    compatible to vasp.4.4
   GGA_COMPAT  = T    GGA compatible to vasp.4.4-vasp.4.6
   LMAXPAW     = -100 max onsite density
   LMAXMIX     =    2 max onsite mixed and CHGCAR
   VOSKOWN=      0    Vosko Wilk Nusair interpolation
   ROPT   =   -0.00025
 Ionic relaxation
   EDIFFG = 0.1E-04   stopping-criterion for IOM
   NSW    =    805    number of steps for IOM
   NBLOCK =      1;   KBLOCK =      1    inner block; outer block 
   IBRION =      6    ionic relax: 0-MD 1-quasi-New 2-CG
   NFREE  =      4    steps in history (QN), initial steepest desc. (CG)
   ISIF   =      2    stress and relaxation
   IWAVPR =     11    prediction:  0-non 1-charg 2-wave 3-comb
   ISYM   =      2    0-nonsym 1-usesym 2-fastsym
   LCORR  =      T    Harris-Foulkes like correction to forces

   POTIM  = 0.5000    time-step for ionic-motion
   TEIN   =    0.0    initial temperature
   TEBEG  =    0.0;   TEEND  =   0.0 temperature during run
   SMASS  =  -3.00    Nose mass-parameter (am)
   estimated Nose-frequenzy (Omega)   =  0.10E-29 period in steps =****** mass=  -0.220E-26a.u.
   SCALEE = 1.0000    scale energy and forces
   NPACO  =    256;   APACO  = 16.0  distance and # of slots for P.C.
   PSTRESS=    0.0 pullay stress

  Mass of Ions in am
   POMASS =  58.69
  Ionic Valenz
   ZVAL   =  16.00
  Atomic Wigner-Seitz radii
   RWIGS  =  -1.00
  virtual crystal weights 
   VCA    =   1.00
   NELECT =    1024.0000    total number of electrons
   NUPDOWN=      -1.0000    fix difference up-down

 DOS related values:
   EMIN   =  10.00;   EMAX   =-10.00  energy-range for DOS
   EFERMI =   0.00
   ISMEAR =     1;   SIGMA  =   0.20  broadening in eV -4-tet -1-fermi 0-gaus

 Electronic relaxation 2 (details)
   IALGO  =     38    algorithm
   LDIAG  =      T    sub-space diagonalisation (order eigenvalues)
   LSUBROT=      F    optimize rotation matrix (better conditioning)
   TURBO    =      0    0=normal 1=particle mesh
   IRESTART =      0    0=no restart 2=restart with 2 vectors
   NREBOOT  =      0    no. of reboots
   NMIN     =      0    reboot dimension
   EREF     =   0.00    reference energy to select bands
   IMIX   =      4    mixing-type and parameters
     AMIX     =   0.40;   BMIX     =  1.00
     AMIX_MAG =   1.60;   BMIX_MAG =  1.00
     AMIN     =   0.10
     WC   =   100.;   INIMIX=   1;  MIXPRE=   1;  MAXMIX= -45

 Intra band minimization:
   WEIMIN = 0.0010     energy-eigenvalue tresh-hold
   EBREAK =  0.39E-09  absolut break condition
   DEPER  =   0.30     relativ break condition  

   TIME   =   0.40     timestep for ELM

  volume/ion in A,a.u.               =      10.46        70.62
  Fermi-wavevector in a.u.,A,eV,Ry     =   1.885990  3.564005 48.395374  3.556960
  Thomas-Fermi vector in A             =   2.928354
 
 Write flags
   LWAVE  =      T    write WAVECAR
   LCHARG =      T    write CHGCAR
   LVTOT  =      F    write LOCPOT, total local potential
   LVHAR  =      F    write LOCPOT, Hartree potential only
   LELF   =      F    write electronic localiz. function (ELF)
   LORBIT =      0    0 simple, 1 ext, 2 COOP (PROOUT)


 Dipole corrections
   LMONO  =      F    monopole corrections only (constant potential shift)
   LDIPOL =      F    correct potential (dipole corrections)
   IDIPOL =      0    1-x, 2-y, 3-z, 4-all directions 
   EPSILON=  1.0000000 bulk dielectric constant

 Exchange correlation treatment:
   GGA     =    --    GGA type
   LEXCH   =     8    internal setting for exchange type
   VOSKOWN=      0    Vosko Wilk Nusair interpolation
   LHFCALC =     F    Hartree Fock is set to
   LHFONE  =     F    Hartree Fock one center treatment
   AEXX    =    0.0000 exact exchange contribution

 Linear response parameters
   LEPSILON=     F    determine dielectric tensor
   LRPA    =     F    only Hartree local field effects (RPA)
   LNABLA  =     F    use nabla operator in PAW spheres
   LVEL    =     F    velocity operator in full k-point grid
   LINTERFAST=   F  fast interpolation
   KINTER  =     0    interpolate to denser k-point grid
   CSHIFT  =0.1000    complex shift for real part using Kramers Kronig
   OMEGAMAX=  -1.0    maximum frequency
   DEG_THRESHOLD= 0.2000000E-02 threshold for treating states as degnerate
   RTIME   =    0.100 relaxation time in fs

 Orbital magnetization related:
   ORBITALMAG=     F  switch on orbital magnetization
   LCHIMAG   =     F  perturbation theory with respect to B field
   DQ        =  0.001000  dq finite difference perturbation B field



--------------------------------------------------------------------------------------------------------


 finite differences with symmetry
 charge density and potential will be updated during run
 spin polarized calculation
 Variant of blocked Davidson
 Davidson routine will perform the subspace rotation
 perform sub-space diagonalisation
    after iterative eigenvector-optimisation
 modified Broyden-mixing scheme, WC =      100.0
 initial mixing is a Kerker type mixing with AMIX =  0.4000 and BMIX =      1.0000
 Hartree-type preconditioning will be used
 using additional bands          134
 real space projection scheme for non local part
 use partial core corrections
 calculate Harris-corrections to forces 
   (improved forces if not selfconsistent)
 use gradient corrections 
 use of overlap-Matrix (Vanderbilt PP)
 Methfessel and Paxton  Order N= 1 SIGMA  =   0.20


--------------------------------------------------------------------------------------------------------


  energy-cutoff  :      367.94
  volume of cell :      669.74
      direct lattice vectors                 reciprocal lattice vectors
     0.000000000  6.944250000  6.944250000    -0.072002016  0.072002016  0.072002016
     6.944250000  0.000000000  6.944250000     0.072002016 -0.072002016  0.072002016
     6.944250000  6.944250000  0.000000000     0.072002016  0.072002016 -0.072002016

  length of vectors
     9.820652531  9.820652531  9.820652531     0.124711150  0.124711150  0.124711150


 
 k-points in units of 2pi/SCALE and weight: Zr 15x15x15                             
   0.00000000  0.00000000  0.00000000       0.037
  -0.02400067  0.02400067  0.02400067       0.296
   0.00000000  0.00000000  0.04800134       0.222
   0.04800134 -0.04800134  0.00000000       0.444
 
 k-points in reciprocal lattice and weights: Zr 15x15x15                             
   0.00000000  0.00000000  0.00000000       0.037
   0.33333333  0.00000000  0.00000000       0.296
   0.33333333  0.33333333  0.00000000       0.222
  -0.33333333  0.33333333  0.00000000       0.444
 
 position of ions in fractional coordinates (direct lattice) 
   0.00000000  0.00000000  0.00000000
   0.00000000  0.00000000  0.25000000
   0.00000000  0.00000000  0.50000000
   0.00000000  0.00000000  0.75000000
   0.00000000  0.25000000  0.00000000
   0.00000000  0.25000000  0.25000000
   0.00000000  0.25000000  0.50000000
   0.00000000  0.25000000  0.75000000
   0.00000000  0.50000000  0.00000000
   0.00000000  0.50000000  0.25000000
   0.00000000  0.50000000  0.50000000
   0.00000000  0.50000000  0.75000000
   0.00000000  0.75000000  0.00000000
   0.00000000  0.75000000  0.25000000
   0.00000000  0.75000000  0.50000000
   0.00000000  0.75000000  0.75000000
   0.25000000  0.00000000  0.00000000
   0.25000000  0.00000000  0.25000000
   0.25000000  0.00000000  0.50000000
   0.25000000  0.00000000  0.75000000
   0.25000000  0.25000000  0.00000000
   0.25000000  0.25000000  0.25000000
   0.25000000  0.25000000  0.50000000
   0.25000000  0.25000000  0.75000000
   0.25000000  0.50000000  0.00000000
   0.25000000  0.50000000  0.25000000
   0.25000000  0.50000000  0.50000000
   0.25000000  0.50000000  0.75000000
   0.25000000  0.75000000  0.00000000
   0.25000000  0.75000000  0.25000000
   0.25000000  0.75000000  0.50000000
   0.25000000  0.75000000  0.75000000
   0.50000000  0.00000000  0.00000000
   0.50000000  0.00000000  0.25000000
   0.50000000  0.00000000  0.50000000
   0.50000000  0.00000000  0.75000000
   0.50000000  0.25000000  0.00000000
   0.50000000  0.25000000  0.25000000
   0.50000000  0.25000000  0.50000000
   0.50000000  0.25000000  0.75000000
   0.50000000  0.50000000  0.00000000
   0.50000000  0.50000000  0.25000000
   0.50000000  0.50000000  0.50000000
   0.50000000  0.50000000  0.75000000
   0.50000000  0.75000000  0.00000000
   0.50000000  0.75000000  0.25000000
   0.50000000  0.75000000  0.50000000
   0.50000000  0.75000000  0.75000000
   0.75000000  0.00000000  0.00000000
   0.75000000  0.00000000  0.25000000
   0.75000000  0.00000000  0.50000000
   0.75000000  0.00000000  0.75000000
   0.75000000  0.25000000  0.00000000
   0.75000000  0.25000000  0.25000000
   0.75000000  0.25000000  0.50000000
   0.75000000  0.25000000  0.75000000
   0.75000000  0.50000000  0.00000000
   0.75000000  0.50000000  0.25000000
   0.75000000  0.50000000  0.50000000
   0.75000000  0.50000000  0.75000000
   0.75000000  0.75000000  0.00000000
   0.75000000  0.75000000  0.25000000
   0.75000000  0.75000000  0.50000000
   0.75000000  0.75000000  0.75000000
 
 position of ions in cartesian coordinates  (Angst):
   0.00000000  0.00000000  0.00000000
   1.73606250  1.73606250  0.00000000
   3.47212500  3.47212500  0.00000000
   5.20818750  5.20818750  0.00000000
   1.73606250  0.00000000  1.73606250
   3.47212500  1.73606250  1.73606250
   5.20818750  3.47212500  1.73606250
   6.94425000  5.20818750  1.73606250
   3.47212500  0.00000000  3.47212500
   5.20818750  1.73606250  3.47212500
   6.94425000  3.47212500  3.47212500
   8.68031250  5.20818750  3.47212500
   5.20818750  0.00000000  5.20818750
   6.94425000  1.73606250  5.20818750
   8.68031250  3.47212500  5.20818750
  10.41637500  5.20818750  5.20818750
   0.00000000  1.73606250  1.73606250
   1.73606250  3.47212500  1.73606250
   3.47212500  5.20818750  1.73606250
   5.20818750  6.94425000  1.73606250
   1.73606250  1.73606250  3.47212500
   3.47212500  3.47212500  3.47212500
   5.20818750  5.20818750  3.47212500
   6.94425000  6.94425000  3.47212500
   3.47212500  1.73606250  5.20818750
   5.20818750  3.47212500  5.20818750
   6.94425000  5.20818750  5.20818750
   8.68031250  6.94425000  5.20818750
   5.20818750  1.73606250  6.94425000
   6.94425000  3.47212500  6.94425000
   8.68031250  5.20818750  6.94425000
  10.41637500  6.94425000  6.94425000
   0.00000000  3.47212500  3.47212500
   1.73606250  5.20818750  3.47212500
   3.47212500  6.94425000  3.47212500
   5.20818750  8.68031250  3.47212500
   1.73606250  3.47212500  5.20818750
   3.47212500  5.20818750  5.20818750
   5.20818750  6.94425000  5.20818750
   6.94425000  8.68031250  5.20818750
   3.47212500  3.47212500  6.94425000
   5.20818750  5.20818750  6.94425000
   6.94425000  6.94425000  6.94425000
   8.68031250  8.68031250  6.94425000
   5.20818750  3.47212500  8.68031250
   6.94425000  5.20818750  8.68031250
   8.68031250  6.94425000  8.68031250
  10.41637500  8.68031250  8.68031250
   0.00000000  5.20818750  5.20818750
   1.73606250  6.94425000  5.20818750
   3.47212500  8.68031250  5.20818750
   5.20818750 10.41637500  5.20818750
   1.73606250  5.20818750  6.94425000
   3.47212500  6.94425000  6.94425000
   5.20818750  8.68031250  6.94425000
   6.94425000 10.41637500  6.94425000
   3.47212500  5.20818750  8.68031250
   5.20818750  6.94425000  8.68031250
   6.94425000  8.68031250  8.68031250
   8.68031250 10.41637500  8.68031250
   5.20818750  5.20818750 10.41637500
   6.94425000  6.94425000 10.41637500
   8.68031250  8.68031250 10.41637500
  10.41637500 10.41637500 10.41637500
 


--------------------------------------------------------------------------------------------------------


 k-point  1 :   0.0000 0.0000 0.0000  plane waves:   10777
 k-point  2 :   0.3333 0.0000 0.0000  plane waves:   10699
 k-point  3 :   0.3333 0.3333 0.0000  plane waves:   10742
 k-point  4 :  -0.3333 0.3333 0.0000  plane waves:   10718

 maximum and minimum number of plane-waves per node :     10777    10699

 maximum number of plane-waves:     10777
 maximum index in each direction: 
   IXMAX=   15   IYMAX=   15   IZMAX=   15
   IXMIN=  -15   IYMIN=  -15   IZMIN=  -15

 NGX is ok and might be reduce to  62
 NGY is ok and might be reduce to  62
 NGZ is ok and might be reduce to  62

 serial   3D FFT for wavefunctions
 parallel 3D FFT for charge:
    minimum data exchange during FFTs selected (reduces bandwidth)


 total amount of memory used by VASP on root node  1318320. kBytes
========================================================================

   base      :      30000. kBytes
   nonlr-proj:      53537. kBytes
   fftplans  :      72476. kBytes
   grid      :     173932. kBytes
   one-center:       1990. kBytes
   wavefun   :     986385. kBytes
 
     INWAV:  cpu time    0.0000: real time    0.0000
 Broyden mixing: mesh for mixing (old mesh)
   NGX = 31   NGY = 31   NGZ = 31
  (NGX  =128   NGY  =128   NGZ  =128)
  gives a total of  29791 points

 initial charge density was supplied:
 charge density of overlapping atoms calculated
 number of electron    1024.0000000 magnetization      64.0000000
 keeping initial charge density in first step


--------------------------------------------------------------------------------------------------------


 Maximum index for non-local projection operator         4753
 Maximum index for augmentation-charges         8391 (set IRDMAX)


--------------------------------------------------------------------------------------------------------


 First call to EWALD:  gamma=   0.203
 Maximum number of real-space cells 3x 3x 3
 Maximum number of reciprocal cells 3x 3x 3

 FEWALD executed in parallel
    FEWALD:  cpu time    0.0210: real time    0.0207


----------------------------------------- Iteration    1(   1)  ---------------------------------------


    POTLOK:  cpu time    2.1177: real time    2.1261
    SETDIJ:  cpu time    0.3579: real time    0.3585
     EDDAV:  cpu time  476.3886: real time  475.9966
       DOS:  cpu time    0.0120: real time    0.0116
    --------------------------------------------
      LOOP:  cpu time  478.8782: real time  478.6196

 eigenvalue-minimisations  : 11936
 total energy-change (2. order) : 0.1408053E+05  (-0.5359797E+05)
 number of electron    1024.0000000 magnetization      64.0000000
 augmentation part     1024.0000000 magnetization      64.0000000

 Free energy of the ion-electron system (eV)
  ---------------------------------------------------
  alpha Z        PSCENC =     10302.80525912
  Ewald energy   TEWEN  =   -155767.55935357
  -Hartree energ DENC   =    -60457.14383472
  -exchange      EXHF   =         0.00000000
  -V(xc)+E(xc)   XCENC  =      5728.73356810
  PAW double counting   =    172361.15642774  -181272.45834873
  entropy T*S    EENTRO =         0.00164393
  eigenvalues    EBANDS =      -828.29816974
  atomic energy  EATOM  =    224013.29143063
  Solvation  Ediel_sol  =         0.00000000
  ---------------------------------------------------
  free energy    TOTEN  =     14080.52862277 eV

  energy without entropy =    14080.52697884  energy(sigma->0) =    14080.52807479


--------------------------------------------------------------------------------------------------------




----------------------------------------- Iteration    1(   2)  ---------------------------------------


     EDDAV:  cpu time  429.8267: real time  429.4717
       DOS:  cpu time    0.0130: real time    0.0127
    --------------------------------------------
      LOOP:  cpu time  429.8397: real time  429.4849

 eigenvalue-minimisations  : 10336
 total energy-change (2. order) :-0.1322524E+05  (-0.1280007E+05)
 number of electron    1024.0000000 magnetization      64.0000000
 augmentation part     1024.0000000 magnetization      64.0000000

 Free energy of the ion-electron system (eV)
  ---------------------------------------------------
  alpha Z        PSCENC =     10302.80525912
  Ewald energy   TEWEN  =   -155767.55935357
  -Hartree energ DENC   =    -60457.14383472
  -exchange      EXHF   =         0.00000000
  -V(xc)+E(xc)   XCENC  =      5728.73356810
  PAW double counting   =    172361.15642774  -181272.45834873
  entropy T*S    EENTRO =        -0.00886089
  eigenvalues    EBANDS =    -14053.53144901
  atomic energy  EATOM  =    224013.29143063
  Solvation  Ediel_sol  =         0.00000000
  ---------------------------------------------------
  free energy    TOTEN  =       855.28483868 eV

  energy without entropy =      855.29369956  energy(sigma->0) =      855.28779231


--------------------------------------------------------------------------------------------------------




----------------------------------------- Iteration    1(   3)  ---------------------------------------


     EDDAV:  cpu time  416.9766: real time  416.6339
       DOS:  cpu time    0.0130: real time    0.0128
    --------------------------------------------
      LOOP:  cpu time  416.9896: real time  416.6473

 eigenvalue-minimisations  : 10624
 total energy-change (2. order) :-0.1222049E+04  (-0.1011961E+04)
 number of electron    1024.0000000 magnetization      64.0000000
 augmentation part     1024.0000000 magnetization      64.0000000

 Free energy of the ion-electron system (eV)
  ---------------------------------------------------
  alpha Z        PSCENC =     10302.80525912
  Ewald energy   TEWEN  =   -155767.55935357
  -Hartree energ DENC   =    -60457.14383472
  -exchange      EXHF   =         0.00000000
  -V(xc)+E(xc)   XCENC  =      5728.73356810
  PAW double counting   =    172361.15642774  -181272.45834873
  entropy T*S    EENTRO =         0.11516551
  eigenvalues    EBANDS =    -15275.70418867
  atomic energy  EATOM  =    224013.29143063
  Solvation  Ediel_sol  =         0.00000000
  ---------------------------------------------------
  free energy    TOTEN  =      -366.76387458 eV

  energy without entropy =     -366.87904009  energy(sigma->0) =     -366.80226309


--------------------------------------------------------------------------------------------------------




----------------------------------------- Iteration    1(   4)  ---------------------------------------


     EDDAV:  cpu time  425.2174: real time  424.8681
       DOS:  cpu time    0.0120: real time    0.0125
    --------------------------------------------
      LOOP:  cpu time  425.2304: real time  424.8811

 eigenvalue-minimisations  : 11032
 total energy-change (2. order) :-0.6303363E+02  (-0.6163548E+02)
 number of electron    1024.0000000 magnetization      64.0000000
 augmentation part     1024.0000000 magnetization      64.0000000

 Free energy of the ion-electron system (eV)
  ---------------------------------------------------
  alpha Z        PSCENC =     10302.80525912
  Ewald energy   TEWEN  =   -155767.55935357
  -Hartree energ DENC   =    -60457.14383472
  -exchange      EXHF   =         0.00000000
  -V(xc)+E(xc)   XCENC  =      5728.73356810
  PAW double counting   =    172361.15642774  -181272.45834873
  entropy T*S    EENTRO =         0.13710158
  eigenvalues    EBANDS =    -15338.75975547
  atomic energy  EATOM  =    224013.29143063
  Solvation  Ediel_sol  =         0.00000000
  ---------------------------------------------------
  free energy    TOTEN  =      -429.79750532 eV

  energy without entropy =     -429.93460690  energy(sigma->0) =     -429.84320585


--------------------------------------------------------------------------------------------------------




----------------------------------------- Iteration    1(   5)  ---------------------------------------


     EDDAV:  cpu time  426.0022: real time  425.6515
       DOS:  cpu time    0.0130: real time    0.0130
    CHARGE:  cpu time   17.6123: real time   17.5980
    MIXING:  cpu time    0.0430: real time    0.0426
    --------------------------------------------
      LOOP:  cpu time  443.6716: real time  443.3056

 eigenvalue-minimisations  : 10952
 total energy-change (2. order) :-0.9131571E+00  (-0.9127161E+00)
 number of electron    1023.9995839 magnetization      57.6780976
 augmentation part      573.8086423 magnetization      46.1447466

 Broyden mixing:
  rms(total) = 0.67602E+01    rms(broyden)= 0.67499E+01
  rms(prec ) = 0.92211E+01
  weight for this iteration     100.00

 Free energy of the ion-electron system (eV)
  ---------------------------------------------------
  alpha Z        PSCENC =     10302.80525912
  Ewald energy   TEWEN  =   -155767.55935357
  -Hartree energ DENC   =    -60457.14383472
  -exchange      EXHF   =         0.00000000
  -V(xc)+E(xc)   XCENC  =      5728.73356810
  PAW double counting   =    172361.15642774  -181272.45834873
  entropy T*S    EENTRO =         0.13736362
  eigenvalues    EBANDS =    -15339.67317465
  atomic energy  EATOM  =    224013.29143063
  Solvation  Ediel_sol  =         0.00000000
  ---------------------------------------------------
  free energy    TOTEN  =      -430.71066246 eV

  energy without entropy =     -430.84802608  energy(sigma->0) =     -430.75645033


--------------------------------------------------------------------------------------------------------




----------------------------------------- Iteration    1(   6)  ---------------------------------------


    POTLOK:  cpu time    1.9507: real time    1.9485
    SETDIJ:  cpu time    0.3369: real time    0.3373
     EDDAV:  cpu time  418.4054: real time  418.0604
       DOS:  cpu time    0.0120: real time    0.0123
    CHARGE:  cpu time   16.6685: real time   16.6547
    MIXING:  cpu time    0.0440: real time    0.0448
    --------------------------------------------
      LOOP:  cpu time  437.4195: real time  437.0587

 eigenvalue-minimisations  : 10836
 total energy-change (2. order) : 0.3963896E+02  (-0.5623271E+02)
 number of electron    1023.9995414 magnetization      50.9138531
 augmentation part      626.6409395 magnetization      45.3048178

 Broyden mixing:
  rms(total) = 0.44123E+01    rms(broyden)= 0.44110E+01
  rms(prec ) = 0.55440E+01
  weight for this iteration     100.00

 eigenvalues of (default mixing * dielectric matrix)
  average eigenvalue GAMMA=   0.5871
  0.5871

 Free energy of the ion-electron system (eV)
  ---------------------------------------------------
  alpha Z        PSCENC =     10302.80525912
  Ewald energy   TEWEN  =   -155767.55935357
  -Hartree energ DENC   =    -57337.90761114
  -exchange      EXHF   =         0.00000000
  -V(xc)+E(xc)   XCENC  =      5608.16819202
  PAW double counting   =    168504.23164413  -177111.85509370
  entropy T*S    EENTRO =        -0.30523569
  eigenvalues    EBANDS =    -18601.94093201
  atomic energy  EATOM  =    224013.29143063
  Solvation  Ediel_sol  =         0.00000000
  ---------------------------------------------------
  free energy    TOTEN  =      -391.07170023 eV

  energy without entropy =     -390.76646454  energy(sigma->0) =     -390.96995500


--------------------------------------------------------------------------------------------------------




----------------------------------------- Iteration    1(   7)  ---------------------------------------


    POTLOK:  cpu time    1.9457: real time    1.9441
    SETDIJ:  cpu time    0.3379: real time    0.3374
     EDDAV:  cpu time  416.2807: real time  415.9383
       DOS:  cpu time    0.0120: real time    0.0123
    CHARGE:  cpu time   16.9584: real time   16.9448
    MIXING:  cpu time    0.0480: real time    0.0466
    --------------------------------------------
      LOOP:  cpu time  435.5838: real time  435.2241

 eigenvalue-minimisations  : 10784
 total energy-change (2. order) : 0.2368059E+02  (-0.9809433E+01)
 number of electron    1023.9995585 magnetization      44.7076342
 augmentation part      605.6648091 magnetization      36.8704166

 Broyden mixing:
  rms(total) = 0.57110E+00    rms(broyden)= 0.56953E+00
  rms(prec ) = 0.69971E+00
  weight for this iteration     100.00

 eigenvalues of (default mixing * dielectric matrix)
  average eigenvalue GAMMA=   0.8317
  1.0570  0.6064

 Free energy of the ion-electron system (eV)
  ---------------------------------------------------
  alpha Z        PSCENC =     10302.80525912
  Ewald energy   TEWEN  =   -155767.55935357
  -Hartree energ DENC   =    -58370.42458996
  -exchange      EXHF   =         0.00000000
  -V(xc)+E(xc)   XCENC  =      5647.25602579
  PAW double counting   =    170993.88295392  -179873.24721867
  entropy T*S    EENTRO =        -0.11535225
  eigenvalues    EBANDS =    -17313.28026432
  atomic energy  EATOM  =    224013.29143063
  Solvation  Ediel_sol  =         0.00000000
  ---------------------------------------------------
  free energy    TOTEN  =      -367.39110931 eV

  energy without entropy =     -367.27575706  energy(sigma->0) =     -367.35265856


--------------------------------------------------------------------------------------------------------




----------------------------------------- Iteration    1(   8)  ---------------------------------------


    POTLOK:  cpu time    1.9417: real time    1.9407
    SETDIJ:  cpu time    0.3379: real time    0.3375
     EDDAV:  cpu time  421.4699: real time  421.1231
       DOS:  cpu time    0.0120: real time    0.0123
    CHARGE:  cpu time   16.9474: real time   16.9330
    MIXING:  cpu time    0.0490: real time    0.0485
    --------------------------------------------
      LOOP:  cpu time  440.7580: real time  440.3959

 eigenvalue-minimisations  : 10976
 total energy-change (2. order) : 0.5047536E-01  (-0.9261959E-01)
 number of electron    1023.9995585 magnetization      41.3815002
 augmentation part      605.5233533 magnetization      34.7986060

 Broyden mixing:
  rms(total) = 0.26849E+00    rms(broyden)= 0.26836E+00
  rms(prec ) = 0.35733E+00
  weight for this iteration     100.00

 eigenvalues of (default mixing * dielectric matrix)
  average eigenvalue GAMMA=   1.1543
  0.6232  0.8756  1.9640

 Free energy of the ion-electron system (eV)
  ---------------------------------------------------
  alpha Z        PSCENC =     10302.80525912
  Ewald energy   TEWEN  =   -155767.55935357
  -Hartree energ DENC   =    -58227.16641887
  -exchange      EXHF   =         0.00000000
  -V(xc)+E(xc)   XCENC  =      5642.43352383
  PAW double counting   =    171881.41338121  -180867.25499291
  entropy T*S    EENTRO =        -0.16009801
  eigenvalues    EBANDS =    -17345.14336538
  atomic energy  EATOM  =    224013.29143063
  Solvation  Ediel_sol  =         0.00000000
  ---------------------------------------------------
  free energy    TOTEN  =      -367.34063395 eV

  energy without entropy =     -367.18053594  energy(sigma->0) =     -367.28726795


--------------------------------------------------------------------------------------------------------




----------------------------------------- Iteration    1(   9)  ---------------------------------------


    POTLOK:  cpu time    1.9417: real time    1.9396
    SETDIJ:  cpu time    0.3339: real time    0.3345
     EDDAV:  cpu time  429.5137: real time  429.1579
       DOS:  cpu time    0.0130: real time    0.0125
    CHARGE:  cpu time   16.7675: real time   16.7532
    MIXING:  cpu time    0.0500: real time    0.0504
    --------------------------------------------
      LOOP:  cpu time  448.6198: real time  448.2489

 eigenvalue-minimisations  : 11226
 total energy-change (2. order) : 0.1015601E+00  (-0.1425147E-01)
 number of electron    1023.9995580 magnetization      41.4749850
 augmentation part      606.1680059 magnetization      35.6576947

 Broyden mixing:
  rms(total) = 0.69295E-01    rms(broyden)= 0.69259E-01
  rms(prec ) = 0.71881E-01
  weight for this iteration     100.00

 eigenvalues of (default mixing * dielectric matrix)
  average eigenvalue GAMMA=   1.1108
  2.2248  0.9637  0.6273  0.6273

 Free energy of the ion-electron system (eV)
  ---------------------------------------------------
  alpha Z        PSCENC =     10302.80525912
  Ewald energy   TEWEN  =   -155767.55935357
  -Hartree energ DENC   =    -58095.58950619
  -exchange      EXHF   =         0.00000000
  -V(xc)+E(xc)   XCENC  =      5637.91262002
  PAW double counting   =    172512.35770994  -181565.29365660
  entropy T*S    EENTRO =        -0.18865093
  eigenvalues    EBANDS =    -17404.97492626
  atomic energy  EATOM  =    224013.29143063
  Solvation  Ediel_sol  =         0.00000000
  ---------------------------------------------------
  free energy    TOTEN  =      -367.23907384 eV

  energy without entropy =     -367.05042291  energy(sigma->0) =     -367.17619020


--------------------------------------------------------------------------------------------------------




----------------------------------------- Iteration    1(  10)  ---------------------------------------


    POTLOK:  cpu time    1.9327: real time    1.9307
    SETDIJ:  cpu time    0.3329: real time    0.3333
     EDDAV:  cpu time  432.4553: real time  432.0953
       DOS:  cpu time    0.0130: real time    0.0129
    CHARGE:  cpu time   16.7625: real time   16.7483
    MIXING:  cpu time    0.0520: real time    0.0527
    --------------------------------------------
      LOOP:  cpu time  451.5494: real time  451.1739

 eigenvalue-minimisations  : 11500
 total energy-change (2. order) :-0.3289421E-02  (-0.8806632E-03)
 number of electron    1023.9995580 magnetization      41.9169230
 augmentation part      606.1688609 magnetization      36.0594307

 Broyden mixing:
  rms(total) = 0.25188E-01    rms(broyden)= 0.25154E-01
  rms(prec ) = 0.26378E-01
  weight for this iteration     100.00

 eigenvalues of (default mixing * dielectric matrix)
  average eigenvalue GAMMA=   1.2510
  2.3258  1.6728  1.0110  0.6226  0.6226

 Free energy of the ion-electron system (eV)
  ---------------------------------------------------
  alpha Z        PSCENC =     10302.80525912
  Ewald energy   TEWEN  =   -155767.55935357
  -Hartree energ DENC   =    -58087.36216480
  -exchange      EXHF   =         0.00000000
  -V(xc)+E(xc)   XCENC  =      5637.66852355
  PAW double counting   =    172617.70196604  -181676.35042475
  entropy T*S    EENTRO =        -0.18865811
  eigenvalues    EBANDS =    -17407.24894137
  atomic energy  EATOM  =    224013.29143063
  Solvation  Ediel_sol  =         0.00000000
  ---------------------------------------------------
  free energy    TOTEN  =      -367.24236326 eV

  energy without entropy =     -367.05370515  energy(sigma->0) =     -367.17947722


--------------------------------------------------------------------------------------------------------




----------------------------------------- Iteration    1(  11)  ---------------------------------------


    POTLOK:  cpu time    1.9317: real time    1.9299
    SETDIJ:  cpu time    0.3329: real time    0.3333
     EDDAV:  cpu time  411.4614: real time  411.1190
       DOS:  cpu time    0.0130: real time    0.0129
    CHARGE:  cpu time   15.2287: real time   15.2155
    MIXING:  cpu time    0.0550: real time    0.0551
    --------------------------------------------
      LOOP:  cpu time  429.0238: real time  428.6663

 eigenvalue-minimisations  : 10830
 total energy-change (2. order) :-0.2015124E-02  (-0.3285976E-03)
 number of electron    1023.9995581 magnetization      41.9212722
 augmentation part      606.1108588 magnetization      35.9574499

 Broyden mixing:
  rms(total) = 0.83489E-02    rms(broyden)= 0.83171E-02
  rms(prec ) = 0.10457E-01
  weight for this iteration     100.00

 eigenvalues of (default mixing * dielectric matrix)
  average eigenvalue GAMMA=   1.1936
  2.4070  1.7722  1.0062  0.7161  0.6460  0.6140

 Free energy of the ion-electron system (eV)
  ---------------------------------------------------
  alpha Z        PSCENC =     10302.80525912
  Ewald energy   TEWEN  =   -155767.55935357
  -Hartree energ DENC   =    -58088.64173017
  -exchange      EXHF   =         0.00000000
  -V(xc)+E(xc)   XCENC  =      5637.71420540
  PAW double counting   =    172723.67308303  -181783.65238211
  entropy T*S    EENTRO =        -0.18731446
  eigenvalues    EBANDS =    -17404.68757625
  atomic energy  EATOM  =    224013.29143063
  Solvation  Ediel_sol  =         0.00000000
  ---------------------------------------------------
  free energy    TOTEN  =      -367.24437838 eV

  energy without entropy =     -367.05706392  energy(sigma->0) =     -367.18194023


--------------------------------------------------------------------------------------------------------




----------------------------------------- Iteration    1(  12)  ---------------------------------------


    POTLOK:  cpu time    1.9307: real time    1.9290
    SETDIJ:  cpu time    0.3339: real time    0.3337
     EDDAV:  cpu time  442.4137: real time  442.0463
       DOS:  cpu time    0.0150: real time    0.0150
    CHARGE:  cpu time   16.9954: real time   16.9810
    MIXING:  cpu time    0.0650: real time    0.0645
    --------------------------------------------
      LOOP:  cpu time  461.7538: real time  461.3701

 eigenvalue-minimisations  : 10864
 total energy-change (2. order) :-0.3331021E-04  (-0.3750394E-04)
 number of electron    1023.9995581 magnetization      41.9087732
 augmentation part      606.1452524 magnetization      35.9460406

 Broyden mixing:
  rms(total) = 0.25560E-02    rms(broyden)= 0.25460E-02
  rms(prec ) = 0.27661E-02
  weight for this iteration     100.00

 eigenvalues of (default mixing * dielectric matrix)
  average eigenvalue GAMMA=   1.2015
  2.4638  1.7745  1.2686  0.9564  0.6944  0.6167  0.6362

 Free energy of the ion-electron system (eV)
  ---------------------------------------------------
  alpha Z        PSCENC =     10302.80525912
  Ewald energy   TEWEN  =   -155767.55935357
  -Hartree energ DENC   =    -58086.22298366
  -exchange      EXHF   =         0.00000000
  -V(xc)+E(xc)   XCENC  =      5637.62351290
  PAW double counting   =    172745.05120200  -181805.04442683
  entropy T*S    EENTRO =        -0.18835052
  eigenvalues    EBANDS =    -17407.00070175
  atomic energy  EATOM  =    224013.29143063
  Solvation  Ediel_sol  =         0.00000000
  ---------------------------------------------------
  free energy    TOTEN  =      -367.24441169 eV

  energy without entropy =     -367.05606117  energy(sigma->0) =     -367.18162819


--------------------------------------------------------------------------------------------------------




----------------------------------------- Iteration    1(  13)  ---------------------------------------


    POTLOK:  cpu time    2.1787: real time    2.1771
    SETDIJ:  cpu time    0.3859: real time    0.3848
     EDDAV:  cpu time  405.4054: real time  405.0692
       DOS:  cpu time    0.0140: real time    0.0147
    CHARGE:  cpu time   17.0024: real time   16.9874
    MIXING:  cpu time    0.0670: real time    0.0676
    --------------------------------------------
      LOOP:  cpu time  425.0544: real time  424.7015

 eigenvalue-minimisations  :  9634
 total energy-change (2. order) : 0.4164758E-07  (-0.1738562E-05)
 number of electron    1023.9995581 magnetization      41.8964726
 augmentation part      606.1519495 magnetization      35.9350737

 Broyden mixing:
  rms(total) = 0.19489E-02    rms(broyden)= 0.19486E-02
  rms(prec ) = 0.26019E-02
  weight for this iteration     100.00

 eigenvalues of (default mixing * dielectric matrix)
  average eigenvalue GAMMA=   1.2713
  2.4816  1.9300  1.9300  1.0149  0.6227  0.6227  0.7843  0.7843

 Free energy of the ion-electron system (eV)
  ---------------------------------------------------
  alpha Z        PSCENC =     10302.80525912
  Ewald energy   TEWEN  =   -155767.55935357
  -Hartree energ DENC   =    -58086.13260603
  -exchange      EXHF   =         0.00000000
  -V(xc)+E(xc)   XCENC  =      5637.61715242
  PAW double counting   =    172755.02725454  -181814.69429514
  entropy T*S    EENTRO =        -0.18864296
  eigenvalues    EBANDS =    -17407.41061067
  atomic energy  EATOM  =    224013.29143063
  Solvation  Ediel_sol  =         0.00000000
  ---------------------------------------------------
  free energy    TOTEN  =      -367.24441165 eV

  energy without entropy =     -367.05576870  energy(sigma->0) =     -367.18153067


--------------------------------------------------------------------------------------------------------




----------------------------------------- Iteration    1(  14)  ---------------------------------------


    POTLOK:  cpu time    2.1867: real time    2.1857
    SETDIJ:  cpu time    0.3859: real time    0.3850
     EDDAV:  cpu time  387.9870: real time  387.6656
       DOS:  cpu time    0.0150: real time    0.0150
    CHARGE:  cpu time   16.9904: real time   16.9758
    MIXING:  cpu time    0.0710: real time    0.0709
    --------------------------------------------
      LOOP:  cpu time  407.6380: real time  407.2986

 eigenvalue-minimisations  :  9094
 total energy-change (2. order) : 0.2596446E-04  (-0.8394458E-06)
 number of electron    1023.9995581 magnetization      41.8947907
 augmentation part      606.1465219 magnetization      35.9345273

 Broyden mixing:
  rms(total) = 0.47398E-03    rms(broyden)= 0.47260E-03
  rms(prec ) = 0.59325E-03
  weight for this iteration     100.00

 eigenvalues of (default mixing * dielectric matrix)
  average eigenvalue GAMMA=   1.2795
  2.5731  2.4378  1.8709  1.0534  0.8468  0.8468  0.6241  0.6313  0.6313

 Free energy of the ion-electron system (eV)
  ---------------------------------------------------
  alpha Z        PSCENC =     10302.80525912
  Ewald energy   TEWEN  =   -155767.55935357
  -Hartree energ DENC   =    -58086.89283975
  -exchange      EXHF   =         0.00000000
  -V(xc)+E(xc)   XCENC  =      5637.64363167
  PAW double counting   =    172762.41589103  -181821.73077134
  entropy T*S    EENTRO =        -0.18875806
  eigenvalues    EBANDS =    -17407.02887542
  atomic energy  EATOM  =    224013.29143063
  Solvation  Ediel_sol  =         0.00000000
  ---------------------------------------------------
  free energy    TOTEN  =      -367.24438569 eV

  energy without entropy =     -367.05562763  energy(sigma->0) =     -367.18146634


--------------------------------------------------------------------------------------------------------




----------------------------------------- Iteration    1(  15)  ---------------------------------------


    POTLOK:  cpu time    2.1867: real time    2.1848
    SETDIJ:  cpu time    0.3849: real time    0.3849
     EDDAV:  cpu time  270.6559: real time  270.4300
       DOS:  cpu time    0.0150: real time    0.0147
    CHARGE:  cpu time   16.9924: real time   16.9794
    MIXING:  cpu time    0.0760: real time    0.0743
    --------------------------------------------
      LOOP:  cpu time  290.3109: real time  290.0688

 eigenvalue-minimisations  :  5420
 total energy-change (2. order) : 0.4789064E-05  (-0.7523501E-07)
 number of electron    1023.9995581 magnetization      41.8958510
 augmentation part      606.1448695 magnetization      35.9355400

 Broyden mixing:
  rms(total) = 0.12283E-03    rms(broyden)= 0.12197E-03
  rms(prec ) = 0.12281E-03
  weight for this iteration     100.00

 eigenvalues of (default mixing * dielectric matrix)
  average eigenvalue GAMMA=   1.2479
  2.6312  2.4471  1.8284  1.1479  0.9100  0.9100  0.7278  0.6258  0.6258  0.6248

 Free energy of the ion-electron system (eV)
  ---------------------------------------------------
  alpha Z        PSCENC =     10302.80525912
  Ewald energy   TEWEN  =   -155767.55935357
  -Hartree energ DENC   =    -58087.06606854
  -exchange      EXHF   =         0.00000000
  -V(xc)+E(xc)   XCENC  =      5637.64982986
  PAW double counting   =    172763.58411937  -181822.83683370
  entropy T*S    EENTRO =        -0.18873377
  eigenvalues    EBANDS =    -17406.92403029
  atomic energy  EATOM  =    224013.29143063
  Solvation  Ediel_sol  =         0.00000000
  ---------------------------------------------------
  free energy    TOTEN  =      -367.24438090 eV

  energy without entropy =     -367.05564713  energy(sigma->0) =     -367.18146964


--------------------------------------------------------------------------------------------------------




----------------------------------------- Iteration    1(  16)  ---------------------------------------


    POTLOK:  cpu time    2.1837: real time    2.1820
    SETDIJ:  cpu time    0.3849: real time    0.3849
     EDDAV:  cpu time  266.7265: real time  266.5038
       DOS:  cpu time    0.0150: real time    0.0149
    --------------------------------------------
      LOOP:  cpu time  269.3101: real time  269.0872

 eigenvalue-minimisations  :  5404
 total energy-change (2. order) :-0.3102759E-06  (-0.1140390E-07)
 number of electron    1023.9995581 magnetization      41.8958510
 augmentation part      606.1448695 magnetization      35.9355400

 Free energy of the ion-electron system (eV)
  ---------------------------------------------------
  alpha Z        PSCENC =     10302.80525912
  Ewald energy   TEWEN  =   -155767.55935357
  -Hartree energ DENC   =    -58087.06498978
  -exchange      EXHF   =         0.00000000
  -V(xc)+E(xc)   XCENC  =      5637.65001095
  PAW double counting   =    172763.48487266  -181822.73830728
  entropy T*S    EENTRO =        -0.18870932
  eigenvalues    EBANDS =    -17406.92459462
  atomic energy  EATOM  =    224013.29143063
  Solvation  Ediel_sol  =         0.00000000
  ---------------------------------------------------
  free energy    TOTEN  =      -367.24438121 eV

  energy without entropy =     -367.05567189  energy(sigma->0) =     -367.18147810


--------------------------------------------------------------------------------------------------------




 average (electrostatic) potential at core
  the test charge radii are     0.8614
  (the norm of the test charge is              1.0000)
       1 -78.9568       2 -78.9568       3 -78.9568       4 -78.9568       5 -78.9568
       6 -78.9568       7 -78.9568       8 -78.9568       9 -78.9568      10 -78.9568
      11 -78.9568      12 -78.9568      13 -78.9568      14 -78.9568      15 -78.9568
      16 -78.9568      17 -78.9568      18 -78.9568      19 -78.9568      20 -78.9568
      21 -78.9568      22 -78.9568      23 -78.9568      24 -78.9568      25 -78.9568
      26 -78.9568      27 -78.9568      28 -78.9568      29 -78.9568      30 -78.9568
      31 -78.9568      32 -78.9568      33 -78.9568      34 -78.9568      35 -78.9568
      36 -78.9568      37 -78.9568      38 -78.9568      39 -78.9568      40 -78.9568
      41 -78.9568      42 -78.9568      43 -78.9568      44 -78.9568      45 -78.9568
      46 -78.9568      47 -78.9568      48 -78.9568      49 -78.9568      50 -78.9568
      51 -78.9568      52 -78.9568      53 -78.9568      54 -78.9568      55 -78.9568
      56 -78.9568      57 -78.9568      58 -78.9568      59 -78.9568      60 -78.9568
      61 -78.9568      62 -78.9568      63 -78.9568      64 -78.9568
 
 
 
 E-fermi :   8.3720     XC(G=0): -14.0310     alpha+bet :-15.4723


 spin component 1

 k-point     1 :       0.0000    0.0000    0.0000
  band No.  band energies     occupation 
      1     -55.7855      1.00000
      2     -55.7854      1.00000
      3     -55.7854      1.00000
      4     -55.7854      1.00000
      5     -55.7726      1.00000
      6     -55.7726      1.00000
      7     -55.7726      1.00000
      8     -55.7373      1.00000
      9     -55.7373      1.00000
     10     -55.7373      1.00000
     11     -55.7373      1.00000
     12     -55.7373      1.00000
     13     -55.7373      1.00000
     14     -55.7372      1.00000
     15     -55.7372      1.00000
     16     -55.7372      1.00000
     17     -55.7372      1.00000
     18     -55.7372      1.00000
     19     -55.7372      1.00000
     20     -55.7372      1.00000
     21     -55.7372      1.00000
     22     -55.7372      1.00000
     23     -55.7372      1.00000
     24     -55.7372      1.00000
     25     -55.7372      1.00000
     26     -55.7372      1.00000
     27     -55.7372      1.00000
     28     -55.7372      1.00000
     29     -55.7372      1.00000
     30     -55.7372      1.00000
     31     -55.7372      1.00000
     32     -55.7046      1.00000
     33     -55.7046      1.00000
     34     -55.7046      1.00000
     35     -55.7046      1.00000
     36     -55.7046      1.00000
     37     -55.7046      1.00000
     38     -55.7046      1.00000
     39     -55.7046      1.00000
     40     -55.7046      1.00000
     41     -55.7046      1.00000
     42     -55.7046      1.00000
     43     -55.7046      1.00000
     44     -55.6990      1.00000
     45     -55.6990      1.00000
     46     -55.6990      1.00000
     47     -55.6990      1.00000
     48     -55.6990      1.00000
     49     -55.6990      1.00000
     50     -55.6990      1.00000
     51     -55.6990      1.00000
     52     -55.6990      1.00000
     53     -55.6990      1.00000
     54     -55.6990      1.00000
     55     -55.6990      1.00000
     56     -55.6492      1.00000
     57     -55.6492      1.00000
     58     -55.6491      1.00000
     59     -55.6491      1.00000
     60     -55.6491      1.00000
     61     -55.6491      1.00000
     62     -55.6491      1.00000
     63     -55.6491      1.00000
     64     -55.6453      1.00000
     65     -55.6453      1.00000
     66     -55.6453      1.00000
     67     -55.6453      1.00000
     68     -55.6453      1.00000
     69     -55.6453      1.00000
     70     -55.6330      1.00000
     71     -55.6330      1.00000
     72     -55.6330      1.00000
     73     -55.6330      1.00000
     74     -55.6330      1.00000
     75     -55.6330      1.00000
     76     -55.6329      1.00000
     77     -55.6329      1.00000
     78     -55.6329      1.00000
     79     -55.6329      1.00000
     80     -55.6329      1.00000
     81     -55.6329      1.00000
     82     -55.6329      1.00000
     83     -55.6329      1.00000
     84     -55.6329      1.00000
     85     -55.6329      1.00000
     86     -55.6329      1.00000
     87     -55.6329      1.00000
     88     -55.6329      1.00000
     89     -55.6329      1.00000
     90     -55.6329      1.00000
     91     -55.6329      1.00000
     92     -55.6329      1.00000
     93     -55.6329      1.00000
     94     -55.6327      1.00000
     95     -55.6327      1.00000
     96     -55.6327      1.00000
     97     -55.6327      1.00000
     98     -55.6327      1.00000
     99     -55.6327      1.00000
    100     -55.6327      1.00000
    101     -55.6327      1.00000
    102     -55.6327      1.00000
    103     -55.6327      1.00000
    104     -55.6327      1.00000
    105     -55.6327      1.00000
    106     -55.6302      1.00000
    107     -55.6302      1.00000
    108     -55.6302      1.00000
    109     -55.6302      1.00000
    110     -55.6302      1.00000
    111     -55.6302      1.00000
    112     -55.6203      1.00000
    113     -55.6203      1.00000
    114     -55.6203      1.00000
    115     -55.6203      1.00000
    116     -55.6203      1.00000
    117     -55.6203      1.00000
    118     -55.5982      1.00000
    119     -55.5982      1.00000
    120     -55.5982      1.00000
    121     -55.5982      1.00000
    122     -55.5982      1.00000
    123     -55.5982      1.00000
    124     -55.5982      1.00000
    125     -55.5982      1.00000
    126     -55.5982      1.00000
    127     -55.5982      1.00000
    128     -55.5982      1.00000
    129     -55.5982      1.00000
    130     -55.5981      1.00000
    131     -55.5981      1.00000
    132     -55.5981      1.00000
    133     -55.5981      1.00000
    134     -55.5981      1.00000
    135     -55.5981      1.00000
    136     -55.5981      1.00000
    137     -55.5981      1.00000
    138     -55.5981      1.00000
    139     -55.5981      1.00000
    140     -55.5981      1.00000
    141     -55.5981      1.00000
    142     -55.5809      1.00000
    143     -55.5809      1.00000
    144     -55.5809      1.00000
    145     -55.5809      1.00000
    146     -55.5809      1.00000
    147     -55.5809      1.00000
    148     -55.5808      1.00000
    149     -55.5808      1.00000
    150     -55.5808      1.00000
    151     -55.5808      1.00000
    152     -55.5808      1.00000
    153     -55.5808      1.00000
    154     -55.5693      1.00000
    155     -55.5693      1.00000
    156     -55.5693      1.00000
    157     -55.5693      1.00000
    158     -55.5693      1.00000
    159     -55.5693      1.00000
    160     -55.5693      1.00000
    161     -55.5693      1.00000
    162     -55.5674      1.00000
    163     -55.5674      1.00000
    164     -55.5674      1.00000
    165     -55.5674      1.00000
    166     -55.5674      1.00000
    167     -55.5674      1.00000
    168     -55.5674      1.00000
    169     -55.5674      1.00000
    170     -55.5674      1.00000
    171     -55.5674      1.00000
    172     -55.5674      1.00000
    173     -55.5674      1.00000
    174     -55.5508      1.00000
    175     -55.5508      1.00000
    176     -55.5508      1.00000
    177     -55.5508      1.00000
    178     -55.5508      1.00000
    179     -55.5508      1.00000
    180     -55.5508      1.00000
    181     -55.5508      1.00000
    182     -55.5508      1.00000
    183     -55.5508      1.00000
    184     -55.5508      1.00000
    185     -55.5508      1.00000
    186     -55.5508      1.00000
    187     -55.5508      1.00000
    188     -55.5508      1.00000
    189     -55.5508      1.00000
    190     -55.5401      1.00000
    191     -55.5401      1.00000
    192     -55.5401      1.00000
    193      -0.9634      1.00000
    194       1.3243      1.00000
    195       1.3243      1.00000
    196       1.3243      1.00000
    197       1.3243      1.00000
    198       1.3243      1.00000
    199       1.3243      1.00000
    200       1.3243      1.00000
    201       1.3243      1.00000
    202       1.9908      1.00000
    203       1.9908      1.00000
    204       1.9908      1.00000
    205       1.9908      1.00000
    206       1.9908      1.00000
    207       1.9908      1.00000
    208       3.2767      1.00000
    209       3.2768      1.00000
    210       3.2768      1.00000
    211       3.2768      1.00000
    212       3.4315      1.00000
    213       3.4315      1.00000
    214       3.4315      1.00000
    215       3.9269      1.00000
    216       3.9269      1.00000
    217       3.9269      1.00000
    218       3.9269      1.00000
    219       3.9269      1.00000
    220       3.9269      1.00000
    221       3.9269      1.00000
    222       3.9269      1.00000
    223       3.9269      1.00000
    224       3.9269      1.00000
    225       3.9269      1.00000
    226       3.9269      1.00000
    227       3.9303      1.00000
    228       3.9303      1.00000
    229       3.9303      1.00000
    230       4.0448      1.00000
    231       4.0448      1.00000
    232       4.0448      1.00000
    233       4.0448      1.00000
    234       4.0448      1.00000
    235       4.0448      1.00000
    236       4.0449      1.00000
    237       4.0449      1.00000
    238       4.0449      1.00000
    239       4.0449      1.00000
    240       4.0449      1.00000
    241       4.0449      1.00000
    242       4.0449      1.00000
    243       4.0449      1.00000
    244       4.0449      1.00000
    245       4.0449      1.00000
    246       4.0449      1.00000
    247       4.0449      1.00000
    248       4.0449      1.00000
    249       4.0449      1.00000
    250       4.0449      1.00000
    251       4.0449      1.00000
    252       4.0449      1.00000
    253       4.0449      1.00000
    254       4.3627      1.00000
    255       4.3627      1.00000
    256       4.3627      1.00000
    257       4.3627      1.00000
    258       4.3627      1.00000
    259       4.3627      1.00000
    260       4.7135      1.00000
    261       4.7135      1.00000
    262       4.7135      1.00000
    263       4.7135      1.00000
    264       4.7135      1.00000
    265       4.7135      1.00000
    266       4.7135      1.00000
    267       4.7135      1.00000
    268       4.7135      1.00000
    269       4.7135      1.00000
    270       4.7135      1.00000
    271       4.7135      1.00000
    272       4.7135      1.00000
    273       4.7135      1.00000
    274       4.7135      1.00000
    275       4.7135      1.00000
    276       4.7135      1.00000
    277       4.7135      1.00000
    278       4.7135      1.00000
    279       4.7135      1.00000
    280       4.7135      1.00000
    281       4.7135      1.00000
    282       4.7135      1.00000
    283       4.7135      1.00000
    284       4.8296      1.00000
    285       4.8296      1.00000
    286       4.8296      1.00000
    287       4.8296      1.00000
    288       4.8296      1.00000
    289       4.8296      1.00000
    290       5.1266      1.00000
    291       5.1266      1.00000
    292       5.1266      1.00000
    293       5.1266      1.00000
    294       5.1266      1.00000
    295       5.1266      1.00000
    296       5.1266      1.00000
    297       5.1266      1.00000
    298       5.1266      1.00000
    299       5.1266      1.00000
    300       5.1266      1.00000
    301       5.1266      1.00000
    302       5.1297      1.00000
    303       5.1297      1.00000
    304       5.1297      1.00000
    305       5.1297      1.00000
    306       5.1297      1.00000
    307       5.1297      1.00000
    308       5.1297      1.00000
    309       5.1297      1.00000
    310       5.1297      1.00000
    311       5.1297      1.00000
    312       5.1297      1.00000
    313       5.1297      1.00000
    314       5.4454      1.00000
    315       5.4454      1.00000
    316       5.4454      1.00000
    317       5.4454      1.00000
    318       5.4454      1.00000
    319       5.4454      1.00000
    320       5.4454      1.00000
    321       5.4454      1.00000
    322       5.4454      1.00000
    323       5.4454      1.00000
    324       5.4454      1.00000
    325       5.4454      1.00000
    326       5.4662      1.00000
    327       5.4662      1.00000
[...]
      6.944250  3.472125  3.472125    -0.120900    0.028512    0.013971  
      8.680312  5.208188  3.472125    -0.120900    0.028512    0.013971  
      5.208188  0.000000  5.208188    -0.120900    0.028512    0.013971  
      6.944250  1.736063  5.208188    -0.120900    0.028512    0.013971  
      8.680312  3.472125  5.208188    -0.120900    0.028512    0.013971  
     10.416375  5.208188  5.208188    -0.120900    0.028512    0.013971  
      0.000000  1.736063  1.736063    -0.120900    0.028512    0.013971  
      1.736063  3.472125  1.736063    -0.120900    0.028512    0.013971  
      3.472125  5.208188  1.736063    -0.120900    0.028512    0.013971  
      5.208188  6.944250  1.736063    -0.120900    0.028512    0.013971  
      1.736063  1.736063  3.472125    -0.120900    0.028512    0.013971  
      3.472125  3.472125  3.472125    -0.120900    0.028512    0.013971  
      5.208188  5.208188  3.472125    -0.120900    0.028512    0.013971  
      6.944250  6.944250  3.472125    -0.120900    0.028512    0.013971  
      3.472125  1.736063  5.208188    -0.120900    0.028512    0.013971  
      5.208188  3.472125  5.208188    -0.120900    0.028512    0.013971  
      6.944250  5.208188  5.208188    -0.120900    0.028512    0.013971  
      8.680312  6.944250  5.208188    -0.120900    0.028512    0.013971  
      5.208188  1.736063  6.944250    -0.120900    0.028512    0.013971  
      6.944250  3.472125  6.944250    -0.120900    0.028512    0.013971  
      8.680312  5.208188  6.944250    -0.120900    0.028512    0.013971  
     10.416375  6.944250  6.944250    -0.120900    0.028512    0.013971  
      0.000000  3.472125  3.472125    -0.120900    0.028512    0.013971  
      1.736063  5.208188  3.472125    -0.120900    0.028512    0.013971  
      3.472125  6.944250  3.472125    -0.120900    0.028512    0.013971  
      5.208188  8.680312  3.472125    -0.120900    0.028512    0.013971  
      1.736063  3.472125  5.208188    -0.120900    0.028512    0.013971  
      3.472125  5.208188  5.208188    -0.120900    0.028512    0.013971  
      5.208188  6.944250  5.208188    -0.120900    0.028512    0.013971  
      6.944250  8.680312  5.208188    -0.120900    0.028512    0.013971  
      3.472125  3.472125  6.944250    -0.120900    0.028512    0.013971  
      5.208188  5.208188  6.944250    -0.120900    0.028512    0.013971  
      6.944250  6.944250  6.944250    -0.120900    0.028512    0.013971  
      8.680312  8.680312  6.944250    -0.120900    0.028512    0.013971  
      5.208188  3.472125  8.680312    -0.120900    0.028512    0.013971  
      6.944250  5.208188  8.680312    -0.120900    0.028512    0.013971  
      8.680312  6.944250  8.680312    -0.120900    0.028512    0.013971  
     10.416375  8.680312  8.680312    -0.120900    0.028512    0.013971  
      0.000000  5.208188  5.208188    -0.120900    0.028512    0.013971  
      1.736063  6.944250  5.208188    -0.120900    0.028512    0.013971  
      3.472125  8.680312  5.208188    -0.120900    0.028512    0.013971  
      5.208188 10.416375  5.208188    -0.120900    0.028512    0.013971  
      1.736063  5.208188  6.944250    -0.120900    0.028512    0.013971  
      3.472125  6.944250  6.944250    -0.120900    0.028512    0.013971  
      5.208188  8.680312  6.944250    -0.120900    0.028512    0.013971  
      6.944250 10.416375  6.944250    -0.120900    0.028512    0.013971  
      3.472125  5.208188  8.680312    -0.120900    0.028512    0.013971  
      5.208188  6.944250  8.680312    -0.120900    0.028512    0.013971  
      6.944250  8.680312  8.680312    -0.120900    0.028512    0.013971  
      8.680312 10.416375  8.680312    -0.120900    0.028512    0.013971  
      5.208188  5.208188 10.416375    -0.120900    0.028512    0.013971  
      6.944250  6.944250 10.416375    -0.120900    0.028512    0.013971  
      8.680312  8.680312 10.416375    -0.120900    0.028512    0.013971  
     10.416375 10.416375 10.416375    -0.120900    0.028512    0.013971  
 
 192 f/i=    0.000001 THz     0.000005 2PiTHz    0.000026 cm-1     0.000003 meV
             X         Y         Z           dx          dy          dz
      0.000000  0.000000  0.000000    -0.028758   -0.121645   -0.000607  
      1.736063  1.736063  0.000000    -0.028758   -0.121645   -0.000607  
      3.472125  3.472125  0.000000    -0.028758   -0.121645   -0.000607  
      5.208188  5.208188  0.000000    -0.028758   -0.121645   -0.000607  
      1.736063  0.000000  1.736063    -0.028758   -0.121645   -0.000607  
      3.472125  1.736063  1.736063    -0.028758   -0.121645   -0.000607  
      5.208188  3.472125  1.736063    -0.028758   -0.121645   -0.000607  
      6.944250  5.208188  1.736063    -0.028758   -0.121645   -0.000607  
      3.472125  0.000000  3.472125    -0.028758   -0.121645   -0.000607  
      5.208188  1.736063  3.472125    -0.028758   -0.121645   -0.000607  
      6.944250  3.472125  3.472125    -0.028758   -0.121645   -0.000607  
      8.680312  5.208188  3.472125    -0.028758   -0.121645   -0.000607  
      5.208188  0.000000  5.208188    -0.028758   -0.121645   -0.000607  
      6.944250  1.736063  5.208188    -0.028758   -0.121645   -0.000607  
      8.680312  3.472125  5.208188    -0.028758   -0.121645   -0.000607  
     10.416375  5.208188  5.208188    -0.028758   -0.121645   -0.000607  
      0.000000  1.736063  1.736063    -0.028758   -0.121645   -0.000607  
      1.736063  3.472125  1.736063    -0.028758   -0.121645   -0.000607  
      3.472125  5.208188  1.736063    -0.028758   -0.121645   -0.000607  
      5.208188  6.944250  1.736063    -0.028758   -0.121645   -0.000607  
      1.736063  1.736063  3.472125    -0.028758   -0.121645   -0.000607  
      3.472125  3.472125  3.472125    -0.028758   -0.121645   -0.000607  
      5.208188  5.208188  3.472125    -0.028758   -0.121645   -0.000607  
      6.944250  6.944250  3.472125    -0.028758   -0.121645   -0.000607  
      3.472125  1.736063  5.208188    -0.028758   -0.121645   -0.000607  
      5.208188  3.472125  5.208188    -0.028758   -0.121645   -0.000607  
      6.944250  5.208188  5.208188    -0.028758   -0.121645   -0.000607  
      8.680312  6.944250  5.208188    -0.028758   -0.121645   -0.000607  
      5.208188  1.736063  6.944250    -0.028758   -0.121645   -0.000607  
      6.944250  3.472125  6.944250    -0.028758   -0.121645   -0.000607  
      8.680312  5.208188  6.944250    -0.028758   -0.121645   -0.000607  
     10.416375  6.944250  6.944250    -0.028758   -0.121645   -0.000607  
      0.000000  3.472125  3.472125    -0.028758   -0.121645   -0.000607  
      1.736063  5.208188  3.472125    -0.028758   -0.121645   -0.000607  
      3.472125  6.944250  3.472125    -0.028758   -0.121645   -0.000607  
      5.208188  8.680312  3.472125    -0.028758   -0.121645   -0.000607  
      1.736063  3.472125  5.208188    -0.028758   -0.121645   -0.000607  
      3.472125  5.208188  5.208188    -0.028758   -0.121645   -0.000607  
      5.208188  6.944250  5.208188    -0.028758   -0.121645   -0.000607  
      6.944250  8.680312  5.208188    -0.028758   -0.121645   -0.000607  
      3.472125  3.472125  6.944250    -0.028758   -0.121645   -0.000607  
      5.208188  5.208188  6.944250    -0.028758   -0.121645   -0.000607  
      6.944250  6.944250  6.944250    -0.028758   -0.121645   -0.000607  
      8.680312  8.680312  6.944250    -0.028758   -0.121645   -0.000607  
      5.208188  3.472125  8.680312    -0.028758   -0.121645   -0.000607  
      6.944250  5.208188  8.680312    -0.028758   -0.121645   -0.000607  
      8.680312  6.944250  8.680312    -0.028758   -0.121645   -0.000607  
     10.416375  8.680312  8.680312    -0.028758   -0.121645   -0.000607  
      0.000000  5.208188  5.208188    -0.028758   -0.121645   -0.000607  
      1.736063  6.944250  5.208188    -0.028758   -0.121645   -0.000607  
      3.472125  8.680312  5.208188    -0.028758   -0.121645   -0.000607  
      5.208188 10.416375  5.208188    -0.028758   -0.121645   -0.000607  
      1.736063  5.208188  6.944250    -0.028758   -0.121645   -0.000607  
      3.472125  6.944250  6.944250    -0.028758   -0.121645   -0.000607  
      5.208188  8.680312  6.944250    -0.028758   -0.121645   -0.000607  
      6.944250 10.416375  6.944250    -0.028758   -0.121645   -0.000607  
      3.472125  5.208188  8.680312    -0.028758   -0.121645   -0.000607  
      5.208188  6.944250  8.680312    -0.028758   -0.121645   -0.000607  
      6.944250  8.680312  8.680312    -0.028758   -0.121645   -0.000607  
      8.680312 10.416375  8.680312    -0.028758   -0.121645   -0.000607  
      5.208188  5.208188 10.416375    -0.028758   -0.121645   -0.000607  
      6.944250  6.944250 10.416375    -0.028758   -0.121645   -0.000607  
      8.680312  8.680312 10.416375    -0.028758   -0.121645   -0.000607  
     10.416375 10.416375 10.416375    -0.028758   -0.121645   -0.000607  
 

 ELASTIC MODULI CONTR FROM IONIC RELAXATION (kBar)
 Direction    XX          YY          ZZ          XY          YZ          ZX
 --------------------------------------------------------------------------------
 XX          -0.0000      0.0000      0.0000      0.0000     -0.0000      0.0000
 YY           0.0000      0.0000      0.0000      0.0000     -0.0000      0.0000
 ZZ           0.0000      0.0000     -0.0000     -0.0000      0.0000     -0.0000
 XY           0.0000      0.0000     -0.0000     -0.0000     -0.0000     -0.0000
 YZ          -0.0000     -0.0000      0.0000     -0.0000     -0.0000     -0.0000
 ZX           0.0000     -0.0000      0.0000     -0.0000      0.0000     -0.0000
 --------------------------------------------------------------------------------



--------------------------------------------------------------------------------------------------------


  LATTYP: Found a face centered cubic cell.
 ALAT       =    13.8885000000
  
  Lattice vectors:
  
 A1 = (   0.0000000000,   6.9442500000,   6.9442500000)
 A2 = (   6.9442500000,   0.0000000000,   6.9442500000)
 A3 = (   6.9442500000,   6.9442500000,   0.0000000000)


Analysis of symmetry for initial positions (statically):
=====================================================================
 Subroutine PRICEL returns following result:
 
  LATTYP: Found a face centered cubic cell.
 ALAT       =     3.4721250000
  
  Lattice vectors:
  
 A1 = (   0.0000000000,   1.7360625000,   1.7360625000)
 A2 = (   1.7360625000,   0.0000000000,   1.7360625000)
 A3 = (   1.7360625000,   1.7360625000,   0.0000000000)
 
  64 primitive cells build up your supercell.
 

 Routine SETGRP: Setting up the symmetry group for a 
 face centered cubic supercell.


 Subroutine GETGRP returns: Found 48 space group operations
 (whereof 48 operations were pure point group operations)
 out of a pool of 48 trial point group operations.


The static configuration has the point symmetry O_h .


Analysis of symmetry for dynamics (positions and initial velocities):
=====================================================================
 Subroutine PRICEL returns following result:
 
  LATTYP: Found a face centered cubic cell.
 ALAT       =     3.4721250000
  
  Lattice vectors:
  
 A1 = (   0.0000000000,   1.7360625000,   1.7360625000)
 A2 = (   1.7360625000,   0.0000000000,   1.7360625000)
 A3 = (   1.7360625000,   1.7360625000,   0.0000000000)
 
  64 primitive cells build up your supercell.
 

 Routine SETGRP: Setting up the symmetry group for a 
 face centered cubic supercell.


 Subroutine GETGRP returns: Found 48 space group operations
 (whereof 48 operations were pure point group operations)
 out of a pool of 48 trial point group operations.


The dynamic configuration has the point symmetry O_h .


Analysis of structural, dynamic, and magnetic symmetry:
=====================================================================
 Subroutine PRICEL returns following result:
 
  LATTYP: Found a face centered cubic cell.
 ALAT       =     3.4721250000
  
  Lattice vectors:
  
 A1 = (   0.0000000000,   1.7360625000,   1.7360625000)
 A2 = (   1.7360625000,   0.0000000000,   1.7360625000)
 A3 = (   1.7360625000,   1.7360625000,   0.0000000000)
 
  64 primitive cells build up your supercell.
 

 Routine SETGRP: Setting up the symmetry group for a 
 face centered cubic supercell.


 Subroutine GETGRP returns: Found 48 space group operations
 (whereof 48 operations were pure point group operations)
 out of a pool of 48 trial point group operations.


The magnetic configuration has the point symmetry O_h .


 Subroutine INISYM returns: Found 48 space group operations
 (whereof 48 operations are pure point group operations),
 and found    64 'primitive' translations

 
 KPOINTS: Zr 15x15x15                             

Automatic generation of k-mesh.
Space group operators:
 irot       det(A)        alpha          n_x          n_y          n_z        tau_x        tau_y        tau_z
    1     1.000000     0.000001     1.000000     0.000000     0.000000     0.000000     0.000000     0.000000
    2    -1.000000     0.000001     1.000000     0.000000     0.000000     0.000000     0.000000     0.000000
    3     1.000000   120.000000    -0.577350    -0.577350    -0.577350     0.000000     0.000000     0.000000
    4    -1.000000   120.000000    -0.577350    -0.577350    -0.577350     0.000000     0.000000     0.000000
    5     1.000000   120.000000     0.577350     0.577350     0.577350     0.000000     0.000000     0.000000
    6    -1.000000   120.000000     0.577350     0.577350     0.577350     0.000000     0.000000     0.000000
    7     1.000000    90.000000     0.000000     0.000000    -1.000000     0.000000     0.000000     0.000000
    8    -1.000000    90.000000     0.000000     0.000000    -1.000000     0.000000     0.000000     0.000000
    9     1.000000   180.000000     0.000000     0.707107     0.707107     0.000000     0.000000     0.000000
   10    -1.000000   180.000000     0.000000     0.707107     0.707107     0.000000     0.000000     0.000000
   11     1.000000    90.000000     0.000000     1.000000     0.000000     0.000000     0.000000     0.000000
   12    -1.000000    90.000000     0.000000     1.000000     0.000000     0.000000     0.000000     0.000000
   13     1.000000   180.000000     0.000000     0.000000     1.000000     0.000000     0.000000     0.000000
   14    -1.000000   180.000000     0.000000     0.000000     1.000000     0.000000     0.000000     0.000000
   15     1.000000   120.000000    -0.577350     0.577350     0.577350     0.000000     0.000000     0.000000
   16    -1.000000   120.000000    -0.577350     0.577350     0.577350     0.000000     0.000000     0.000000
   17     1.000000   120.000000    -0.577350     0.577350    -0.577350     0.000000     0.000000     0.000000
   18    -1.000000   120.000000    -0.577350     0.577350    -0.577350     0.000000     0.000000     0.000000
   19     1.000000    90.000000     0.000000     0.000000     1.000000     0.000000     0.000000     0.000000
   20    -1.000000    90.000000     0.000000     0.000000     1.000000     0.000000     0.000000     0.000000
   21     1.000000    90.000000    -1.000000     0.000000     0.000000     0.000000     0.000000     0.000000
   22    -1.000000    90.000000    -1.000000     0.000000     0.000000     0.000000     0.000000     0.000000
   23     1.000000   180.000000     0.707107     0.000000     0.707107     0.000000     0.000000     0.000000
   24    -1.000000   180.000000     0.707107     0.000000     0.707107     0.000000     0.000000     0.000000
   25     1.000000   120.000000     0.577350    -0.577350     0.577350     0.000000     0.000000     0.000000
   26    -1.000000   120.000000     0.577350    -0.577350     0.577350     0.000000     0.000000     0.000000
   27     1.000000   120.000000    -0.577350    -0.577350     0.577350     0.000000     0.000000     0.000000
   28    -1.000000   120.000000    -0.577350    -0.577350     0.577350     0.000000     0.000000     0.000000
   29     1.000000   180.000000     1.000000     0.000000     0.000000     0.000000     0.000000     0.000000
   30    -1.000000   180.000000     1.000000     0.000000     0.000000     0.000000     0.000000     0.000000
   31     1.000000    90.000000     0.000000    -1.000000     0.000000     0.000000     0.000000     0.000000
   32    -1.000000    90.000000     0.000000    -1.000000     0.000000     0.000000     0.000000     0.000000
   33     1.000000   180.000000     0.707107     0.707107     0.000000     0.000000     0.000000     0.000000
   34    -1.000000   180.000000     0.707107     0.707107     0.000000     0.000000     0.000000     0.000000
   35     1.000000    90.000000     1.000000     0.000000     0.000000     0.000000     0.000000     0.000000
   36    -1.000000    90.000000     1.000000     0.000000     0.000000     0.000000     0.000000     0.000000
   37     1.000000   120.000000     0.577350    -0.577350    -0.577350     0.000000     0.000000     0.000000
   38    -1.000000   120.000000     0.577350    -0.577350    -0.577350     0.000000     0.000000     0.000000
   39     1.000000   180.000000     0.000000     1.000000     0.000000     0.000000     0.000000     0.000000
   40    -1.000000   180.000000     0.000000     1.000000     0.000000     0.000000     0.000000     0.000000
   41     1.000000   120.000000     0.577350     0.577350    -0.577350     0.000000     0.000000     0.000000
   42    -1.000000   120.000000     0.577350     0.577350    -0.577350     0.000000     0.000000     0.000000
   43     1.000000   180.000000     0.000000    -0.707107     0.707107     0.000000     0.000000     0.000000
   44    -1.000000   180.000000     0.000000    -0.707107     0.707107     0.000000     0.000000     0.000000
   45     1.000000   180.000000     0.707107    -0.707107     0.000000     0.000000     0.000000     0.000000
   46    -1.000000   180.000000     0.707107    -0.707107     0.000000     0.000000     0.000000     0.000000
   47     1.000000   180.000000     0.707107     0.000000    -0.707107     0.000000     0.000000     0.000000
   48    -1.000000   180.000000     0.707107     0.000000    -0.707107     0.000000     0.000000     0.000000
 
 Subroutine IBZKPT returns following result:
 ===========================================
 
 Found      4 irreducible k-points:
 
 Following reciprocal coordinates:
            Coordinates               Weight
  0.000000  0.000000  0.000000      1.000000
  0.333333  0.000000  0.000000      8.000000
  0.333333  0.333333  0.000000      6.000000
 -0.333333  0.333333  0.000000     12.000000
 
 Following cartesian coordinates:
            Coordinates               Weight
  0.000000  0.000000  0.000000      1.000000
 -0.024001  0.024001  0.024001      8.000000
  0.000000  0.000000  0.048001      6.000000
  0.048001 -0.048001  0.000000     12.000000
 
 writing wavefunctions
     LOOP+:  cpu time 9804.3825: real time 9796.3873
    4ORBIT:  cpu time    0.0000: real time    0.0000

 total amount of memory used by VASP on root node  1318320. kBytes
========================================================================

   base      :      30000. kBytes
   nonlr-proj:      53537. kBytes
   fftplans  :      72476. kBytes
   grid      :     173932. kBytes
   one-center:       1990. kBytes
   wavefun   :     986385. kBytes
 
  
  
 General timing and accounting informations for this job:
 ========================================================
  
                  Total CPU time used (sec):    49651.246
                            User time (sec):    49639.968
                          System time (sec):       11.277
                         Elapsed time (sec):    51424.023
  
                   Maximum memory used (kb):     3306404.
                   Average memory used (kb):           0.
  
                          Minor page faults:       310229
                          Major page faults:            6
                 Voluntary context switches:          767
