<?xml version="1.0" encoding="ISO-8859-1"?>
<modeling>
 <generator>
  <i name="program" type="string">vasp </i>
  <i name="version" type="string">5.4.1  </i>
  <i name="subversion" type="string">05Feb16 (build Oct 12 2016 17:31:35) complex                          parallel </i>
  <i name="platform" type="string">IFC91_ompi </i>
  <i name="date" type="string">2020 09 08 </i>
  <i name="time" type="string">14:24:48 </i>
 </generator>
 <incar>
  <i type="string" name="SYSTEM"> phonon of Zr bcc - omiga</i>
  <i type="string" name="PREC">a</i>
  <i type="int" name="ISPIN">     2</i>
  <i type="int" name="IBRION">     6</i>
  <i type="int" name="NFREE">     4</i>
  <i name="EDIFF">      0.00000100</i>
  <i type="int" name="NSW">     1</i>
  <v name="MAGMOM">      1.00000000      1.00000000      1.00000000      1.00000000      1.00000000      1.00000000      1.00000000      1.00000000      1.00000000      1.00000000      1.00000000      1.00000000      1.00000000      1.00000000      1.00000000      1.00000000      1.00000000      1.00000000      1.00000000      1.00000000
      1.00000000      1.00000000      1.00000000      1.00000000      1.00000000      1.00000000      1.00000000      1.00000000      1.00000000      1.00000000      1.00000000      1.00000000      1.00000000      1.00000000      1.00000000      1.00000000      1.00000000      1.00000000      1.00000000      1.00000000
      1.00000000      1.00000000      1.00000000      1.00000000      1.00000000      1.00000000      1.00000000      1.00000000      1.00000000      1.00000000      1.00000000      1.00000000      1.00000000      1.00000000      1.00000000      1.00000000      1.00000000      1.00000000      1.00000000      1.00000000
      1.00000000      1.00000000      1.00000000      1.00000000</v>
  <i type="string" name="LREAL">Auto</i>
  <i type="int" name="ISMEAR">     1</i>
  <i type="int" name="NWRITE">     0</i>
  <v type="int" name="KPOINT_BSE">    -1     0     0     0</v>
 </incar>
 <kpoints>
  <generation param="Gamma">
   <v type="int" name="divisions">       3        3        3 </v>
   <v name="usershift">      0.00000000       0.00000000       0.00000000 </v>
   <v name="genvec1">      0.33333333       0.00000000       0.00000000 </v>
   <v name="genvec2">      0.00000000       0.33333333       0.00000000 </v>
   <v name="genvec3">      0.00000000       0.00000000       0.33333333 </v>
   <v name="shift">      0.00000000       0.00000000       0.00000000 </v>
  </generation>
  <varray name="kpointlist" >
   <v>       0.00000000       0.00000000       0.00000000 </v>
   <v>       0.33333333       0.00000000       0.00000000 </v>
   <v>       0.33333333       0.33333333       0.00000000 </v>
   <v>      -0.33333333       0.33333333       0.00000000 </v>
  </varray>
  <varray name="weights" >
   <v>       0.03703704 </v>
   <v>       0.29629630 </v>
   <v>       0.22222222 </v>
   <v>       0.44444444 </v>
  </varray>
 </kpoints>
 <parameters>
  <separator name="general" >
   <i type="string" name="SYSTEM">phonon of Zr bcc - omiga</i>
   <i type="logical" name="LCOMPAT"> F  </i>
  </separator>
  <separator name="electronic" >
   <i type="string" name="PREC">a</i>
   <i name="ENMAX">    367.94500000</i>
   <i name="ENAUG">    703.44300000</i>
   <i name="EDIFF">      0.00000100</i>
   <i type="int" name="IALGO">    38</i>
   <i type="int" name="IWAVPR">    11</i>
   <i type="int" name="NBANDS">   646</i>
   <i name="NELECT">   1024.00000000</i>
   <i type="int" name="TURBO">     0</i>
   <i type="int" name="IRESTART">     0</i>
   <i type="int" name="NREBOOT">     0</i>
   <i type="int" name="NMIN">     0</i>
   <i name="EREF">      0.00000000</i>
   <separator name="electronic smearing" >
    <i type="int" name="ISMEAR">     1</i>
    <i name="SIGMA">      0.20000000</i>
    <i name="KSPACING">      0.50000000</i>
    <i type="logical" name="KGAMMA"> T  </i>
   </separator>
   <separator name="electronic projectors" >
    <i type="logical" name="LREAL"> T  </i>
    <v name="ROPT">     -0.00025000</v>
    <i type="int" name="LMAXPAW">  -100</i>
    <i type="int" name="LMAXMIX">     2</i>
    <i type="logical" name="NLSPLINE"> F  </i>
   </separator>
   <separator name="electronic startup" >
    <i type="int" name="ISTART">     0</i>
    <i type="int" name="ICHARG">     2</i>
    <i type="int" name="INIWAV">     1</i>
   </separator>
   <separator name="electronic spin" >
    <i type="int" name="ISPIN">     2</i>
    <i type="logical" name="LNONCOLLINEAR"> F  </i>
    <v name="MAGMOM">      1.00000000      1.00000000      1.00000000      1.00000000      1.00000000      1.00000000      1.00000000      1.00000000      1.00000000      1.00000000      1.00000000      1.00000000      1.00000000      1.00000000      1.00000000      1.00000000      1.00000000      1.00000000      1.00000000      1.00000000
      1.00000000      1.00000000      1.00000000      1.00000000      1.00000000      1.00000000      1.00000000      1.00000000      1.00000000      1.00000000      1.00000000      1.00000000      1.00000000      1.00000000      1.00000000      1.00000000      1.00000000      1.00000000      1.00000000      1.00000000
      1.00000000      1.00000000      1.00000000      1.00000000      1.00000000      1.00000000      1.00000000      1.00000000      1.00000000      1.00000000      1.00000000      1.00000000      1.00000000      1.00000000      1.00000000      1.00000000      1.00000000      1.00000000      1.00000000      1.00000000
      1.00000000      1.00000000      1.00000000      1.00000000</v>
    <i name="NUPDOWN">     -1.00000000</i>
    <i type="logical" name="LSORBIT"> F  </i>
    <v name="SAXIS">      0.00000000      0.00000000      1.00000000</v>
    <i type="logical" name="LSPIRAL"> F  </i>
    <v name="QSPIRAL">      0.00000000      0.00000000      0.00000000</v>
    <i type="logical" name="LZEROZ"> F  </i>
   </separator>
   <separator name="electronic exchange-correlation" >
    <i type="logical" name="LASPH"> F  </i>
    <i type="logical" name="LMETAGGA"> F  </i>
   </separator>
   <separator name="electronic convergence" >
    <i type="int" name="NELM">    60</i>
    <i type="int" name="NELMDL">     0</i>
    <i type="int" name="NELMIN">     2</i>
    <i name="ENINI">    367.94500000</i>
    <separator name="electronic convergence detail" >
     <i type="logical" name="LDIAG"> T  </i>
     <i type="logical" name="LSUBROT"> F  </i>
     <i name="WEIMIN">      0.00100000</i>
     <i name="EBREAK">      0.00000000</i>
     <i name="DEPER">      0.30000000</i>
     <i type="int" name="NRMM">     4</i>
     <i name="TIME">      0.40000000</i>
    </separator>
   </separator>
   <separator name="electronic mixer" >
    <i name="AMIX">      0.40000000</i>
    <i name="BMIX">      1.00000000</i>
    <i name="AMIN">      0.10000000</i>
    <i name="AMIX_MAG">      1.60000000</i>
    <i name="BMIX_MAG">      1.00000000</i>
    <separator name="electronic mixer details" >
     <i type="int" name="IMIX">     4</i>
     <i type="logical" name="MIXFIRST"> F  </i>
     <i type="int" name="MAXMIX">   -45</i>
     <i name="WC">    100.00000000</i>
     <i type="int" name="INIMIX">     1</i>
     <i type="int" name="MIXPRE">     1</i>
     <i type="int" name="MREMOVE">     5</i>
    </separator>
   </separator>
   <separator name="electronic dipolcorrection" >
    <i type="logical" name="LDIPOL"> F  </i>
    <i type="logical" name="LMONO"> F  </i>
    <i type="int" name="IDIPOL">     0</i>
    <i name="EPSILON">      1.00000000</i>
    <v name="DIPOL">   -100.00000000   -100.00000000   -100.00000000</v>
    <i name="EFIELD">      0.00000000</i>
   </separator>
  </separator>
  <separator name="grids" >
   <i type="int" name="NGX">    64</i>
   <i type="int" name="NGY">    64</i>
   <i type="int" name="NGZ">    64</i>
   <i type="int" name="NGXF">   128</i>
   <i type="int" name="NGYF">   128</i>
   <i type="int" name="NGZF">   128</i>
   <i type="logical" name="ADDGRID"> F  </i>
  </separator>
  <separator name="ionic" >
   <i type="int" name="NSW">   805</i>
   <i type="int" name="IBRION">     6</i>
   <i type="int" name="ISIF">     2</i>
   <i name="PSTRESS">      0.00000000</i>
   <i name="EDIFFG">      0.00001000</i>
   <i type="int" name="NFREE">     4</i>
   <i name="POTIM">      0.50000000</i>
   <i name="SMASS">     -3.00000000</i>
   <i name="SCALEE">      1.00000000</i>
  </separator>
  <separator name="ionic md" >
   <i name="TEBEG">      0.00010000</i>
   <i name="TEEND">      0.00010000</i>
   <i type="int" name="NBLOCK">     1</i>
   <i type="int" name="KBLOCK">     1</i>
   <i type="int" name="NPACO">   256</i>
   <i name="APACO">     16.00000000</i>
  </separator>
  <separator name="symmetry" >
   <i type="int" name="ISYM">     2</i>
   <i name="SYMPREC">      0.00001000</i>
  </separator>
  <separator name="dos" >
   <i type="logical" name="LORBIT"> F  </i>
   <v name="RWIGS">     -1.00000000</v>
   <i type="int" name="NEDOS">   301</i>
   <i name="EMIN">     10.00000000</i>
   <i name="EMAX">    -10.00000000</i>
   <i name="EFERMI">      0.00000000</i>
  </separator>
  <separator name="writing" >
   <i type="int" name="NWRITE">     0</i>
   <i type="logical" name="LWAVE"> T  </i>
   <i type="logical" name="LCHARG"> T  </i>
   <i type="logical" name="LPARD"> F  </i>
   <i type="logical" name="LVTOT"> F  </i>
   <i type="logical" name="LVHAR"> F  </i>
   <i type="logical" name="LELF"> F  </i>
   <i type="logical" name="LOPTICS"> F  </i>
   <v name="STM">      0.00000000      0.00000000      0.00000000      0.00000000      0.00000000      0.00000000      0.00000000</v>
  </separator>
  <separator name="performance" >
   <i type="int" name="NPAR">     1</i>
   <i type="int" name="NSIM">     4</i>
   <i type="int" name="NBLK">    -1</i>
   <i type="logical" name="LPLANE"> T  </i>
   <i type="logical" name="LSCALAPACK"> T  </i>
   <i type="logical" name="LSCAAWARE"> F  </i>
   <i type="logical" name="LSCALU"> F  </i>
   <i type="logical" name="LASYNC"> F  </i>
   <i type="logical" name="LORBITALREAL"> F  </i>
  </separator>
  <separator name="miscellaneous" >
   <i type="int" name="IDIOT">     3</i>
   <i type="logical" name="LMUSIC"> F  </i>
   <v name="POMASS">     58.69000000</v>
   <v name="DARWINR">      0.00000000</v>
   <v name="DARWINV">      1.00000000</v>
   <i type="logical" name="LCORR"> T  </i>
  </separator>
  <i type="logical" name="GGA_COMPAT"> T  </i>
  <i type="logical" name="LBERRY"> F  </i>
  <i type="int" name="ICORELEVEL">     0</i>
  <i type="logical" name="LDAU"> F  </i>
  <i type="int" name="I_CONSTRAINED_M">     0</i>
  <separator name="electronic exchange-correlation" >
   <i type="string" name="GGA">--</i>
   <i type="int" name="VOSKOWN">     0</i>
   <i type="logical" name="LHFCALC"> F  </i>
   <i type="string" name="PRECFOCK"></i>
   <i type="logical" name="LSYMGRAD"> F  </i>
   <i type="logical" name="LHFONE"> F  </i>
   <i type="logical" name="LRHFCALC"> F  </i>
   <i type="logical" name="LTHOMAS"> F  </i>
   <i type="logical" name="LMODELHF"> F  </i>
   <i name="ENCUT4O">     -1.00000000</i>
   <i type="int" name="EXXOEP">     0</i>
   <i type="int" name="FOURORBIT">     0</i>
   <i name="AEXX">      0.00000000</i>
   <i name="HFALPHA">      0.00000000</i>
   <i name="MCALPHA">      0.00000000</i>
   <i name="ALDAX">      1.00000000</i>
   <i name="AGGAX">      1.00000000</i>
   <i name="ALDAC">      1.00000000</i>
   <i name="AGGAC">      1.00000000</i>
   <i type="int" name="NKREDX">     1</i>
   <i type="int" name="NKREDY">     1</i>
   <i type="int" name="NKREDZ">     1</i>
   <i type="logical" name="SHIFTRED"> F  </i>
   <i type="logical" name="ODDONLY"> F  </i>
   <i type="logical" name="EVENONLY"> F  </i>
   <i type="int" name="LMAXFOCK">     0</i>
   <i type="int" name="NMAXFOCKAE">     0</i>
   <i type="logical" name="LFOCKAEDFT"> F  </i>
   <i name="HFSCREEN">      0.00000000</i>
   <i name="HFSCREENC">      0.00000000</i>
   <i type="int" name="NBANDSGWLOW">     0</i>
  </separator>
  <separator name="vdW DFT" >
   <i type="logical" name="LUSE_VDW"> F  </i>
   <i name="Zab_VDW">     -0.84910000</i>
   <i name="PARAM1">      0.12340000</i>
   <i name="PARAM2">      1.00000000</i>
   <i name="PARAM3">      0.00000000</i>
  </separator>
  <separator name="model GW" >
   <i type="int" name="MODEL_GW">     0</i>
   <i name="MODEL_EPS0">      6.27880961</i>
   <i name="MODEL_ALPHA">      1.00000000</i>
  </separator>
  <separator name="linear response parameters" >
   <i type="logical" name="LEPSILON"> F  </i>
   <i type="logical" name="LRPA"> F  </i>
   <i type="logical" name="LNABLA"> F  </i>
   <i type="logical" name="LVEL"> F  </i>
   <i type="int" name="KINTER">     0</i>
   <i name="CSHIFT">      0.10000000</i>
   <i name="OMEGAMAX">     -1.00000000</i>
   <i name="DEG_THRESHOLD">      0.00200000</i>
  </separator>
  <separator name="orbital magnetization" >
   <i type="logical" name="NUCIND"> F  </i>
   <v name="MAGPOS">      0.00000000      0.00000000      0.00000000</v>
   <i type="logical" name="LNICSALL"> T  </i>
   <i type="logical" name="ORBITALMAG"> F  </i>
   <i type="logical" name="LMAGBLOCH"> F  </i>
   <i type="logical" name="LCHIMAG"> F  </i>
   <i type="logical" name="LGAUGE"> T  </i>
   <i type="int" name="MAGATOM">     0</i>
   <v name="MAGDIPOL">      0.00000000      0.00000000      0.00000000</v>
   <v name="AVECCONST">      0.00000000      0.00000000      0.00000000</v>
  </separator>
  <separator name="response functions" >
   <i type="logical" name="LADDER"> F  </i>
   <i type="logical" name="LFXC"> F  </i>
   <i type="logical" name="LHARTREE"> T  </i>
   <i type="int" name="IBSE">     0</i>
   <v type="int" name="KPOINT">    -1     0     0     0</v>
   <i type="logical" name="LTCTE"> F  </i>
   <i type="logical" name="LTETE"> F  </i>
   <i type="logical" name="LTRIPLET"> F  </i>
   <i type="logical" name="LFXCEPS"> F  </i>
   <i type="logical" name="LFXHEG"> F  </i>
   <i type="int" name="NATURALO">     0</i>
   <i type="logical" name="L2ORDER"> F  </i>
   <i type="logical" name="LUSEW"> F  </i>
   <i name="ENCUTGW">     -2.00000000</i>
   <i name="ENCUTGWSOFT">     -2.00000000</i>
   <i name="ENCUTLF">     -1.00000000</i>
   <i type="int" name="LMAXMP2">    -1</i>
   <i name="SCISSOR">      0.00000000</i>
   <i type="int" name="NOMEGA">     0</i>
   <i type="int" name="NOMEGAR">     0</i>
   <i type="int" name="NBANDSGW">    -1</i>
   <i type="int" name="NBANDSO">    -1</i>
   <i type="int" name="NBANDSV">    -1</i>
   <i type="int" name="NELM">     1</i>
   <i type="int" name="NELMHF">     1</i>
   <i type="int" name="DIM">     3</i>
   <i type="int" name="ANTIRES">     0</i>
   <i name="OMEGAMAX">    -30.00000000</i>
   <i name="OMEGAMIN">    -30.00000000</i>
   <i name="OMEGATL">   -200.00000000</i>
   <i type="int" name="OMEGAGRID">     0</i>
   <i name="CSHIFT">     -0.10000000</i>
   <i type="logical" name="SELFENERGY"> F  </i>
   <i type="logical" name="LSPECTRAL"> F  </i>
   <i type="logical" name="LSPECTRALGW"> F  </i>
   <i type="logical" name="LSINGLES"> F  </i>
   <i type="logical" name="LFERMIGW"> F  </i>
   <i type="logical" name="ODDONLYGW"> F  </i>
   <i type="logical" name="EVENONLYGW"> F  </i>
   <i type="int" name="NKREDLFX">     1</i>
   <i type="int" name="NKREDLFY">     1</i>
   <i type="int" name="NKREDLFZ">     1</i>
   <i type="int" name="MAXMEM">  1800</i>
   <i type="int" name="TELESCOPE">     0</i>
   <i type="int" name="TAUPAR">     1</i>
   <i type="int" name="OMEGAPAR">    -1</i>
   <i name="LAMBDA">      1.00000000</i>
  </separator>
  <separator name="External order field" >
   <i name="OFIELD_KAPPA">      0.00000000</i>
   <v name="OFIELD_K">      0.00000000      0.00000000      0.00000000</v>
   <i name="OFIELD_Q6_NEAR">      0.00000000</i>
   <i name="OFIELD_Q6_FAR">      0.00000000</i>
   <i name="OFIELD_A">      0.00000000</i>
  </separator>
 </parameters>
 <atominfo>
  <atoms>      64 </atoms>
  <types>       1 </types>
  <array name="atoms" >
   <dimension dim="1">ion</dimension>
   <field type="string">element</field>
   <field type="int">atomtype</field>
   <set>
    <rc><c>Ni</c><c>   1</c></rc>
    <rc><c>Ni</c><c>   1</c></rc>
    <rc><c>Ni</c><c>   1</c></rc>
    <rc><c>Ni</c><c>   1</c></rc>
    <rc><c>Ni</c><c>   1</c></rc>
    <rc><c>Ni</c><c>   1</c></rc>
    <rc><c>Ni</c><c>   1</c></rc>
    <rc><c>Ni</c><c>   1</c></rc>
    <rc><c>Ni</c><c>   1</c></rc>
    <rc><c>Ni</c><c>   1</c></rc>
    <rc><c>Ni</c><c>   1</c></rc>
    <rc><c>Ni</c><c>   1</c></rc>
    <rc><c>Ni</c><c>   1</c></rc>
    <rc><c>Ni</c><c>   1</c></rc>
    <rc><c>Ni</c><c>   1</c></rc>
    <rc><c>Ni</c><c>   1</c></rc>
    <rc><c>Ni</c><c>   1</c></rc>
    <rc><c>Ni</c><c>   1</c></rc>
    <rc><c>Ni</c><c>   1</c></rc>
    <rc><c>Ni</c><c>   1</c></rc>
    <rc><c>Ni</c><c>   1</c></rc>
    <rc><c>Ni</c><c>   1</c></rc>
    <rc><c>Ni</c><c>   1</c></rc>
    <rc><c>Ni</c><c>   1</c></rc>
    <rc><c>Ni</c><c>   1</c></rc>
    <rc><c>Ni</c><c>   1</c></rc>
    <rc><c>Ni</c><c>   1</c></rc>
    <rc><c>Ni</c><c>   1</c></rc>
    <rc><c>Ni</c><c>   1</c></rc>
    <rc><c>Ni</c><c>   1</c></rc>
    <rc><c>Ni</c><c>   1</c></rc>
    <rc><c>Ni</c><c>   1</c></rc>
    <rc><c>Ni</c><c>   1</c></rc>
    <rc><c>Ni</c><c>   1</c></rc>
    <rc><c>Ni</c><c>   1</c></rc>
    <rc><c>Ni</c><c>   1</c></rc>
    <rc><c>Ni</c><c>   1</c></rc>
    <rc><c>Ni</c><c>   1</c></rc>
    <rc><c>Ni</c><c>   1</c></rc>
    <rc><c>Ni</c><c>   1</c></rc>
    <rc><c>Ni</c><c>   1</c></rc>
    <rc><c>Ni</c><c>   1</c></rc>
    <rc><c>Ni</c><c>   1</c></rc>
    <rc><c>Ni</c><c>   1</c></rc>
    <rc><c>Ni</c><c>   1</c></rc>
    <rc><c>Ni</c><c>   1</c></rc>
    <rc><c>Ni</c><c>   1</c></rc>
    <rc><c>Ni</c><c>   1</c></rc>
    <rc><c>Ni</c><c>   1</c></rc>
    <rc><c>Ni</c><c>   1</c></rc>
    <rc><c>Ni</c><c>   1</c></rc>
    <rc><c>Ni</c><c>   1</c></rc>
    <rc><c>Ni</c><c>   1</c></rc>
    <rc><c>Ni</c><c>   1</c></rc>
    <rc><c>Ni</c><c>   1</c></rc>
    <rc><c>Ni</c><c>   1</c></rc>
    <rc><c>Ni</c><c>   1</c></rc>
    <rc><c>Ni</c><c>   1</c></rc>
    <rc><c>Ni</c><c>   1</c></rc>
    <rc><c>Ni</c><c>   1</c></rc>
    <rc><c>Ni</c><c>   1</c></rc>
    <rc><c>Ni</c><c>   1</c></rc>
    <rc><c>Ni</c><c>   1</c></rc>
    <rc><c>Ni</c><c>   1</c></rc>
   </set>
  </array>
  <array name="atomtypes" >
   <dimension dim="1">type</dimension>
   <field type="int">atomspertype</field>
   <field type="string">element</field>
   <field>mass</field>
   <field>valence</field>
   <field type="string">pseudopotential</field>
   <set>
    <rc><c>  64</c><c>Ni</c><c>     58.69000000</c><c>     16.00000000</c><c> PAW_PBE Ni_pv 06Sep2000                </c></rc>
   </set>
  </array>
 </atominfo>
 <structure name="initialpos" >
  <crystal>
   <varray name="basis" >
    <v>       0.00000000       6.94425000       6.94425000 </v>
    <v>       6.94425000       0.00000000       6.94425000 </v>
    <v>       6.94425000       6.94425000       0.00000000 </v>
   </varray>
   <i name="volume">    669.73969208 </i>
   <varray name="rec_basis" >
    <v>      -0.07200202       0.07200202       0.07200202 </v>
    <v>       0.07200202      -0.07200202       0.07200202 </v>
    <v>       0.07200202       0.07200202      -0.07200202 </v>
   </varray>
  </crystal>
  <varray name="positions" >
   <v>       0.00000000       0.00000000       0.00000000 </v>
   <v>       0.00000000       0.00000000       0.25000000 </v>
   <v>       0.00000000       0.00000000       0.50000000 </v>
   <v>       0.00000000       0.00000000       0.75000000 </v>
   <v>       0.00000000       0.25000000       0.00000000 </v>
   <v>       0.00000000       0.25000000       0.25000000 </v>
   <v>       0.00000000       0.25000000       0.50000000 </v>
   <v>       0.00000000       0.25000000       0.75000000 </v>
   <v>       0.00000000       0.50000000       0.00000000 </v>
   <v>       0.00000000       0.50000000       0.25000000 </v>
   <v>       0.00000000       0.50000000       0.50000000 </v>
   <v>       0.00000000       0.50000000       0.75000000 </v>
   <v>       0.00000000       0.75000000       0.00000000 </v>
   <v>       0.00000000       0.75000000       0.25000000 </v>
   <v>       0.00000000       0.75000000       0.50000000 </v>
   <v>       0.00000000       0.75000000       0.75000000 </v>
   <v>       0.25000000       0.00000000       0.00000000 </v>
   <v>       0.25000000       0.00000000       0.25000000 </v>
   <v>       0.25000000       0.00000000       0.50000000 </v>
   <v>       0.25000000       0.00000000       0.75000000 </v>
   <v>       0.25000000       0.25000000       0.00000000 </v>
   <v>       0.25000000       0.25000000       0.25000000 </v>
   <v>       0.25000000       0.25000000       0.50000000 </v>
   <v>       0.25000000       0.25000000       0.75000000 </v>
   <v>       0.25000000       0.50000000       0.00000000 </v>
   <v>       0.25000000       0.50000000       0.25000000 </v>
   <v>       0.25000000       0.50000000       0.50000000 </v>
   <v>       0.25000000       0.50000000       0.75000000 </v>
   <v>       0.25000000       0.75000000       0.00000000 </v>
   <v>       0.25000000       0.75000000       0.25000000 </v>
   <v>       0.25000000       0.75000000       0.50000000 </v>
   <v>       0.25000000       0.75000000       0.75000000 </v>
   <v>       0.50000000       0.00000000       0.00000000 </v>
   <v>       0.50000000       0.00000000       0.25000000 </v>
   <v>       0.50000000       0.00000000       0.50000000 </v>
   <v>       0.50000000       0.00000000       0.75000000 </v>
   <v>       0.50000000       0.25000000       0.00000000 </v>
   <v>       0.50000000       0.25000000       0.25000000 </v>
   <v>       0.50000000       0.25000000       0.50000000 </v>
   <v>       0.50000000       0.25000000       0.75000000 </v>
   <v>       0.50000000       0.50000000       0.00000000 </v>
   <v>       0.50000000       0.50000000       0.25000000 </v>
   <v>       0.50000000       0.50000000       0.50000000 </v>
   <v>       0.50000000       0.50000000       0.75000000 </v>
   <v>       0.50000000       0.75000000       0.00000000 </v>
   <v>       0.50000000       0.75000000       0.25000000 </v>
   <v>       0.50000000       0.75000000       0.50000000 </v>
   <v>       0.50000000       0.75000000       0.75000000 </v>
   <v>       0.75000000       0.00000000       0.00000000 </v>
   <v>       0.75000000       0.00000000       0.25000000 </v>
   <v>       0.75000000       0.00000000       0.50000000 </v>
   <v>       0.75000000       0.00000000       0.75000000 </v>
   <v>       0.75000000       0.25000000       0.00000000 </v>
   <v>       0.75000000       0.25000000       0.25000000 </v>
   <v>       0.75000000       0.25000000       0.50000000 </v>
   <v>       0.75000000       0.25000000       0.75000000 </v>
   <v>       0.75000000       0.50000000       0.00000000 </v>
   <v>       0.75000000       0.50000000       0.25000000 </v>
   <v>       0.75000000       0.50000000       0.50000000 </v>
   <v>       0.75000000       0.50000000       0.75000000 </v>
   <v>       0.75000000       0.75000000       0.00000000 </v>
   <v>       0.75000000       0.75000000       0.25000000 </v>
   <v>       0.75000000       0.75000000       0.50000000 </v>
   <v>       0.75000000       0.75000000       0.75000000 </v>
  </varray>
 </structure>
 <calculation>
  <scstep>
   <time name="dav">  476.39  476.00</time>
   <time name="total">  478.88  478.62</time>
   <energy>
    <i name="alphaZ">  10302.80525912 </i>
    <i name="ewald">-155767.55935357 </i>
    <i name="hartreedc"> -60457.14383472 </i>
    <i name="XCdc">   5728.73356810 </i>
    <i name="pawpsdc"> 172361.15642774 </i>
    <i name="pawaedc">-181272.45834873 </i>
    <i name="eentropy">      0.00164393 </i>
    <i name="bandstr">   -828.29816974 </i>
    <i name="atom"> 224013.29143063 </i>
    <i name="e_fr_energy">  14080.52862277 </i>
    <i name="e_wo_entrp">  14080.52697884 </i>
    <i name="e_0_energy">  14080.52807479 </i>
   </energy>
  </scstep>
  <scstep>
   <time name="dav">  429.83  429.47</time>
   <time name="total">  429.84  429.48</time>
   <energy>
    <i name="e_fr_energy">    855.28483868 </i>
    <i name="e_wo_entrp">    855.29369956 </i>
    <i name="e_0_energy">    855.28779231 </i>
   </energy>
  </scstep>
  <scstep>
   <time name="dav">  416.98  416.63</time>
   <time name="total">  416.99  416.65</time>
   <energy>
    <i name="e_fr_energy">   -366.76387458 </i>
    <i name="e_wo_entrp">   -366.87904009 </i>
    <i name="e_0_energy">   -366.80226309 </i>
   </energy>
  </scstep>
  <scstep>
   <time name="dav">  425.22  424.87</time>
   <time name="total">  425.23  424.88</time>
   <energy>
    <i name="e_fr_energy">   -429.79750532 </i>
    <i name="e_wo_entrp">   -429.93460690 </i>
    <i name="e_0_energy">   -429.84320585 </i>
   </energy>
  </scstep>
  <scstep>
   <time name="dav">  426.00  425.65</time>
   <time name="total">  443.67  443.31</time>
   <energy>
    <i name="e_fr_energy">   -430.71066246 </i>
    <i name="e_wo_entrp">   -430.84802608 </i>
    <i name="e_0_energy">   -430.75645033 </i>
   </energy>
  </scstep>
  <scstep>
   <time name="dav">  418.41  418.06</time>
   <time name="total">  437.42  437.06</time>
   <energy>
    <i name="e_fr_energy">   -391.07170023 </i>
    <i name="e_wo_entrp">   -390.76646454 </i>
    <i name="e_0_energy">   -390.96995500 </i>
   </energy>
  </scstep>
  <scstep>
   <time name="dav">  416.28  415.94</time>
   <time name="total">  435.58  435.22</time>
   <energy>
    <i name="e_fr_energy">   -367.39110931 </i>
    <i name="e_wo_entrp">   -367.27575706 </i>
    <i name="e_0_energy">   -367.35265856 </i>
   </energy>
  </scstep>
  <scstep>
   <time name="dav">  421.47  421.12</time>
   <time name="total">  440.76  440.40</time>
   <energy>
    <i name="e_fr_energy">   -367.34063395 </i>
    <i name="e_wo_entrp">   -367.18053594 </i>
    <i name="e_0_energy">   -367.28726795 </i>
   </energy>
  </scstep>
  <scstep>
   <time name="dav">  429.51  429.16</time>
   <time name="total">  448.62  448.25</time>
   <energy>
    <i name="e_fr_energy">   -367.23907384 </i>
    <i name="e_wo_entrp">   -367.05042291 </i>
    <i name="e_0_energy">   -367.17619020 </i>
   </energy>
  </scstep>
  <scstep>
   <time name="dav">  432.46  432.10</time>
   <time name="total">  451.55  451.17</time>
   <energy>
    <i name="e_fr_energy">   -367.24236326 </i>
    <i name="e_wo_entrp">   -367.05370515 </i>
    <i name="e_0_energy">   -367.17947722 </i>
   </energy>
  </scstep>
  <scstep>
   <time name="dav">  411.46  411.12</time>
   <time name="total">  429.02  428.67</time>
   <energy>
    <i name="e_fr_energy">   -367.24437838 </i>
    <i name="e_wo_entrp">   -367.05706392 </i>
    <i name="e_0_energy">   -367.18194023 </i>
   </energy>
  </scstep>
  <scstep>
   <time name="dav">  442.41  442.05</time>
   <time name="total">  461.75  461.37</time>
   <energy>
    <i name="e_fr_energy">   -367.24441169 </i>
    <i name="e_wo_entrp">   -367.05606117 </i>
    <i name="e_0_energy">   -367.18162819 </i>
   </energy>
  </scstep>
  <scstep>
   <time name="dav">  405.41  405.07</time>
   <time name="total">  425.05  424.70</time>
   <energy>
    <i name="e_fr_energy">   -367.24441165 </i>
    <i name="e_wo_entrp">   -367.05576870 </i>
    <i name="e_0_energy">   -367.18153067 </i>
   </energy>
  </scstep>
  <scstep>
   <time name="dav">  387.99  387.67</time>
   <time name="total">  407.64  407.30</time>
   <energy>
    <i name="e_fr_energy">   -367.24438569 </i>
    <i name="e_wo_entrp">   -367.05562763 </i>
    <i name="e_0_energy">   -367.18146634 </i>
   </energy>
  </scstep>
  <scstep>
   <time name="dav">  270.66  270.43</time>
   <time name="total">  290.31  290.07</time>
   <energy>
    <i name="e_fr_energy">   -367.24438090 </i>
    <i name="e_wo_entrp">   -367.05564713 </i>
    <i name="e_0_energy">   -367.18146964 </i>
   </energy>
  </scstep>
  <scstep>
   <time name="dav">  266.73  266.50</time>
   <time name="total">  269.31  269.09</time>
   <energy>
    <i name="alphaZ">  10302.80525912 </i>
    <i name="ewald">-155767.55935357 </i>
    <i name="hartreedc"> -58087.06498978 </i>
    <i name="XCdc">   5637.65001095 </i>
    <i name="pawpsdc"> 172763.48487266 </i>
    <i name="pawaedc">-181822.73830728 </i>
    <i name="eentropy">     -0.18870932 </i>
    <i name="bandstr"> -17406.92459462 </i>
    <i name="atom"> 224013.29143063 </i>
    <i name="e_fr_energy">   -367.24438121 </i>
    <i name="e_wo_entrp">   -367.05567189 </i>
    <i name="e_0_energy">   -367.18147810 </i>
   </energy>
  </scstep>
  <structure>
   <crystal>
    <varray name="basis" >
     <v>       0.00000000       6.94425000       6.94425000 </v>
     <v>       6.94425000       0.00000000       6.94425000 </v>
     <v>       6.94425000       6.94425000       0.00000000 </v>
    </varray>
    <i name="volume">    669.73969208 </i>
    <varray name="rec_basis" >
     <v>      -0.07200202       0.07200202       0.07200202 </v>
     <v>       0.07200202      -0.07200202       0.07200202 </v>
     <v>       0.07200202       0.07200202      -0.07200202 </v>
    </varray>
   </crystal>
   <varray name="positions" >
    <v>       0.00000000       0.00000000       0.00000000 </v>
    <v>       0.00000000       0.00000000       0.25000000 </v>
    <v>       0.00000000       0.00000000       0.50000000 </v>
    <v>       0.00000000       0.00000000       0.75000000 </v>
    <v>       0.00000000       0.25000000       0.00000000 </v>
    <v>       0.00000000       0.25000000       0.25000000 </v>
    <v>       0.00000000       0.25000000       0.50000000 </v>
    <v>       0.00000000       0.25000000       0.75000000 </v>
    <v>       0.00000000       0.50000000       0.00000000 </v>
    <v>       0.00000000       0.50000000       0.25000000 </v>
    <v>       0.00000000       0.50000000       0.50000000 </v>
    <v>       0.00000000       0.50000000       0.75000000 </v>
    <v>       0.00000000       0.75000000       0.00000000 </v>
    <v>       0.00000000       0.75000000       0.25000000 </v>
    <v>       0.00000000       0.75000000       0.50000000 </v>
    <v>       0.00000000       0.75000000       0.75000000 </v>
    <v>       0.25000000       0.00000000       0.00000000 </v>
    <v>       0.25000000       0.00000000       0.25000000 </v>
    <v>       0.25000000       0.00000000       0.50000000 </v>
    <v>       0.25000000       0.00000000       0.75000000 </v>
    <v>       0.25000000       0.25000000       0.00000000 </v>
    <v>       0.25000000       0.25000000       0.25000000 </v>
    <v>       0.25000000       0.25000000       0.50000000 </v>
    <v>       0.25000000       0.25000000       0.75000000 </v>
    <v>       0.25000000       0.50000000       0.00000000 </v>
    <v>       0.25000000       0.50000000       0.25000000 </v>
    <v>       0.25000000       0.50000000       0.50000000 </v>
    <v>       0.25000000       0.50000000       0.75000000 </v>
    <v>       0.25000000       0.75000000       0.00000000 </v>
    <v>       0.25000000       0.75000000       0.25000000 </v>
    <v>       0.25000000       0.75000000       0.50000000 </v>
    <v>       0.25000000       0.75000000       0.75000000 </v>
    <v>       0.50000000       0.00000000       0.00000000 </v>
    <v>       0.50000000       0.00000000       0.25000000 </v>
    <v>       0.50000000       0.00000000       0.50000000 </v>
    <v>       0.50000000       0.00000000       0.75000000 </v>
    <v>       0.50000000       0.25000000       0.00000000 </v>
    <v>       0.50000000       0.25000000       0.25000000 </v>
    <v>       0.50000000       0.25000000       0.50000000 </v>
    <v>       0.50000000       0.25000000       0.75000000 </v>
    <v>       0.50000000       0.50000000       0.00000000 </v>
    <v>       0.50000000       0.50000000       0.25000000 </v>
    <v>       0.50000000       0.50000000       0.50000000 </v>
    <v>       0.50000000       0.50000000       0.75000000 </v>
    <v>       0.50000000       0.75000000       0.00000000 </v>
    <v>       0.50000000       0.75000000       0.25000000 </v>
    <v>       0.50000000       0.75000000       0.50000000 </v>
    <v>       0.50000000       0.75000000       0.75000000 </v>
    <v>       0.75000000       0.00000000       0.00000000 </v>
    <v>       0.75000000       0.00000000       0.25000000 </v>
    <v>       0.75000000       0.00000000       0.50000000 </v>
    <v>       0.75000000       0.00000000       0.75000000 </v>
    <v>       0.75000000       0.25000000       0.00000000 </v>
    <v>       0.75000000       0.25000000       0.25000000 </v>
    <v>       0.75000000       0.25000000       0.50000000 </v>
    <v>       0.75000000       0.25000000       0.75000000 </v>
    <v>       0.75000000       0.50000000       0.00000000 </v>
    <v>       0.75000000       0.50000000       0.25000000 </v>
    <v>       0.75000000       0.50000000       0.50000000 </v>
    <v>       0.75000000       0.50000000       0.75000000 </v>
    <v>       0.75000000       0.75000000       0.00000000 </v>
    <v>       0.75000000       0.75000000       0.25000000 </v>
    <v>       0.75000000       0.75000000       0.50000000 </v>
    <v>       0.75000000       0.75000000       0.75000000 </v>
   </varray>
  </structure>
  <varray name="forces" >
   <v>       0.00000000       0.00000000       0.00000000 </v>
   <v>       0.00000000      -0.00000000       0.00000000 </v>
   <v>      -0.00000000      -0.00000000      -0.00000000 </v>
   <v>      -0.00000000      -0.00000000      -0.00000000 </v>
   <v>       0.00000000       0.00000000       0.00000000 </v>
   <v>       0.00000000       0.00000000       0.00000000 </v>
   <v>       0.00000000      -0.00000000      -0.00000000 </v>
   <v>      -0.00000000      -0.00000000      -0.00000000 </v>
   <v>       0.00000000       0.00000000       0.00000000 </v>
   <v>       0.00000000       0.00000000       0.00000000 </v>
   <v>       0.00000000      -0.00000000      -0.00000000 </v>
   <v>      -0.00000000      -0.00000000      -0.00000000 </v>
   <v>       0.00000000       0.00000000       0.00000000 </v>
   <v>       0.00000000       0.00000000      -0.00000000 </v>
   <v>      -0.00000000      -0.00000000      -0.00000000 </v>
   <v>      -0.00000000       0.00000000      -0.00000000 </v>
   <v>       0.00000000       0.00000000       0.00000000 </v>
   <v>       0.00000000       0.00000000       0.00000000 </v>
   <v>      -0.00000000      -0.00000000      -0.00000000 </v>
   <v>      -0.00000000      -0.00000000      -0.00000000 </v>
   <v>       0.00000000       0.00000000       0.00000000 </v>
   <v>       0.00000000       0.00000000       0.00000000 </v>
   <v>       0.00000000      -0.00000000      -0.00000000 </v>
   <v>       0.00000000      -0.00000000      -0.00000000 </v>
   <v>       0.00000000       0.00000000       0.00000000 </v>
   <v>       0.00000000       0.00000000       0.00000000 </v>
   <v>      -0.00000000      -0.00000000      -0.00000000 </v>
   <v>      -0.00000000      -0.00000000      -0.00000000 </v>
   <v>       0.00000000       0.00000000       0.00000000 </v>
   <v>       0.00000000       0.00000000       0.00000000 </v>
   <v>      -0.00000000      -0.00000000      -0.00000000 </v>
   <v>      -0.00000000      -0.00000000      -0.00000000 </v>
   <v>      -0.00000000       0.00000000       0.00000000 </v>
   <v>      -0.00000000       0.00000000       0.00000000 </v>
   <v>      -0.00000000      -0.00000000      -0.00000000 </v>
   <v>      -0.00000000      -0.00000000      -0.00000000 </v>
   <v>       0.00000000       0.00000000       0.00000000 </v>
   <v>      -0.00000000       0.00000000       0.00000000 </v>
   <v>      -0.00000000      -0.00000000      -0.00000000 </v>
   <v>      -0.00000000      -0.00000000      -0.00000000 </v>
   <v>       0.00000000       0.00000000       0.00000000 </v>
   <v>       0.00000000       0.00000000       0.00000000 </v>
   <v>      -0.00000000      -0.00000000      -0.00000000 </v>
   <v>      -0.00000000       0.00000000      -0.00000000 </v>
   <v>       0.00000000       0.00000000       0.00000000 </v>
   <v>       0.00000000       0.00000000      -0.00000000 </v>
   <v>      -0.00000000      -0.00000000       0.00000000 </v>
   <v>      -0.00000000      -0.00000000      -0.00000000 </v>
   <v>      -0.00000000      -0.00000000       0.00000000 </v>
   <v>       0.00000000       0.00000000       0.00000000 </v>
   <v>      -0.00000000      -0.00000000      -0.00000000 </v>
   <v>      -0.00000000      -0.00000000      -0.00000000 </v>
   <v>      -0.00000000       0.00000000       0.00000000 </v>
   <v>       0.00000000       0.00000000       0.00000000 </v>
   <v>      -0.00000000      -0.00000000      -0.00000000 </v>
   <v>      -0.00000000      -0.00000000      -0.00000000 </v>
   <v>       0.00000000       0.00000000       0.00000000 </v>
   <v>      -0.00000000       0.00000000       0.00000000 </v>
   <v>      -0.00000000      -0.00000000      -0.00000000 </v>
   <v>      -0.00000000      -0.00000000      -0.00000000 </v>
   <v>      -0.00000000       0.00000000       0.00000000 </v>
   <v>       0.00000000      -0.00000000       0.00000000 </v>
   <v>       0.00000000      -0.00000000      -0.00000000 </v>
   <v>      -0.00000000      -0.00000000      -0.00000000 </v>
  </varray>
  <varray name="stress" >
   <v>     -64.17593797       0.00000000      -0.00000000 </v>
   <v>       0.00000000     -64.17593797      -0.00000000 </v>
   <v>       0.00000000      -0.00000000     -64.17593797 </v>
  </varray>
  <energy>
   <i name="e_fr_energy">   -367.24438121 </i>
   <i name="e_wo_entrp">   -367.18147810 </i>
   <i name="e_0_energy">     -0.18870932 </i>
  </energy>
  <kpoints>
   <generation param="Gamma">
    <v type="int" name="divisions">       3        3        3 </v>
    <v name="usershift">      0.00000000       0.00000000       0.00000000 </v>
    <v name="genvec1">      0.33333333       0.00000000       0.00000000 </v>
    <v name="genvec2">      0.00000000       0.33333333       0.00000000 </v>
    <v name="genvec3">      0.00000000       0.00000000       0.33333333 </v>
    <v name="shift">      0.00000000       0.00000000       0.00000000 </v>
   </generation>
   <varray name="kpointlist" >
    <v>       0.00000000       0.00000000       0.00000000 </v>
    <v>       0.33333333       0.00000000       0.00000000 </v>
    <v>       0.33333333       0.33333333       0.00000000 </v>
    <v>      -0.33333333       0.33333333       0.00000000 </v>
    <v>       0.00000000       0.33333333       0.33333333 </v>
    <v>      -0.33333333       0.33333333       0.33333333 </v>
   </varray>
   <varray name="weights" >
    <v>       0.03703704 </v>
    <v>       0.29629630 </v>
    <v>       0.14814815 </v>
    <v>       0.29629630 </v>
    <v>       0.07407407 </v>
    <v>       0.14814815 </v>
   </varray>
  </kpoints>
  <time name="totalsc"> 7246.86 7242.82</time>
 </calculation>
 <calculation>
  <scstep>
   <time name="dav">  752.13  751.51</time>
   <time name="total">  779.46  778.82</time>
   <energy>
    <i name="alphaZ">  10302.80525912 </i>
    <i name="ewald">-155766.90576888 </i>
    <i name="hartreedc"> -58087.72362277 </i>
    <i name="XCdc">   5637.65441214 </i>
    <i name="pawpsdc"> 172763.26798907 </i>
    <i name="pawaedc">-181822.53072787 </i>
    <i name="eentropy">     -0.18851321 </i>
    <i name="bandstr"> -17406.58817637 </i>
    <i name="atom"> 224013.29143063 </i>
    <i name="e_fr_energy">   -366.91771815 </i>
    <i name="e_wo_entrp">   -366.72920494 </i>
    <i name="e_0_energy">   -366.85488041 </i>
   </energy>
  </scstep>
  <scstep>
   <time name="dav">  633.49  632.97</time>
   <time name="total">  663.41  662.86</time>
   <energy>
    <i name="e_fr_energy">   -367.25214605 </i>
    <i name="e_wo_entrp">   -367.06371618 </i>
    <i name="e_0_energy">   -367.18933609 </i>
   </energy>
  </scstep>
  <scstep>
   <time name="dav">  732.39  731.79</time>
   <time name="total">  762.30  761.67</time>
   <energy>
    <i name="e_fr_energy">   -367.24405827 </i>
    <i name="e_wo_entrp">   -367.05515101 </i>
    <i name="e_0_energy">   -367.18108918 </i>
   </energy>
  </scstep>
  <scstep>
   <time name="dav">  726.13  725.53</time>
   <time name="total">  756.04  755.42</time>
   <energy>
    <i name="e_fr_energy">   -367.24838465 </i>
    <i name="e_wo_entrp">   -367.05964226 </i>
    <i name="e_0_energy">   -367.18547052 </i>
   </energy>
  </scstep>
  <scstep>
   <time name="dav">  657.12  656.58</time>
   <time name="total">  687.06  686.49</time>
   <energy>
    <i name="e_fr_energy">   -367.24039207 </i>
    <i name="e_wo_entrp">   -367.05169880 </i>
    <i name="e_0_energy">   -367.17749431 </i>
   </energy>
  </scstep>
  <scstep>
   <time name="dav">  719.19  718.60</time>
   <time name="total">  749.15  748.53</time>
   <energy>
    <i name="e_fr_energy">   -367.24021451 </i>
    <i name="e_wo_entrp">   -367.05153229 </i>
    <i name="e_0_energy">   -367.17732044 </i>
   </energy>
  </scstep>
  <scstep>
   <time name="dav">  676.25  675.70</time>
   <time name="total">  703.62  703.04</time>
   <energy>
    <i name="e_fr_energy">   -367.24003028 </i>
    <i name="e_wo_entrp">   -367.05138760 </i>
    <i name="e_0_energy">   -367.17714938 </i>
   </energy>
  </scstep>
  <scstep>
   <time name="dav">  675.10  674.54</time>
   <time name="total">  702.34  701.76</time>
   <energy>
    <i name="e_fr_energy">   -367.23987941 </i>
    <i name="e_wo_entrp">   -367.05126722 </i>
    <i name="e_0_energy">   -367.17700868 </i>
   </energy>
  </scstep>
  <scstep>
   <time name="dav">  676.89  676.33</time>
   <time name="total">  704.11  703.52</time>
   <energy>
    <i name="e_fr_energy">   -367.23994321 </i>
    <i name="e_wo_entrp">   -367.05135783 </i>
    <i name="e_0_energy">   -367.17708142 </i>
   </energy>
  </scstep>
  <scstep>
   <time name="dav">  756.81  756.18</time>
   <time name="total">  784.03  783.38</time>
   <energy>
    <i name="e_fr_energy">   -367.23958980 </i>
    <i name="e_wo_entrp">   -367.05104641 </i>
    <i name="e_0_energy">   -367.17674200 </i>
   </energy>
  </scstep>
  <scstep>
   <time name="dav">  753.47  752.85</time>
   <time name="total">  780.71  780.06</time>
   <energy>
    <i name="e_fr_energy">   -367.23952386 </i>
    <i name="e_wo_entrp">   -367.05097601 </i>
    <i name="e_0_energy">   -367.17667458 </i>
   </energy>
  </scstep>
  <scstep>
   <time name="dav">  751.23  750.61</time>
   <time name="total">  778.48  777.84</time>
   <energy>
    <i name="e_fr_energy">   -367.23953532 </i>
    <i name="e_wo_entrp">   -367.05098276 </i>
    <i name="e_0_energy">   -367.17668447 </i>
   </energy>
  </scstep>
  <scstep>
   <time name="dav">  638.51  637.98</time>
   <time name="total">  665.76  665.21</time>
   <energy>
    <i name="e_fr_energy">   -367.23952580 </i>
    <i name="e_wo_entrp">   -367.05096851 </i>
    <i name="e_0_energy">   -367.17667337 </i>
   </energy>
  </scstep>
  <scstep>
   <time name="dav">  555.29  554.83</time>
   <time name="total">  582.55  582.07</time>
   <energy>
    <i name="e_fr_energy">   -367.23952884 </i>
    <i name="e_wo_entrp">   -367.05096292 </i>
    <i name="e_0_energy">   -367.17667354 </i>
   </energy>
  </scstep>
  <scstep>
   <time name="dav">  451.57  451.19</time>
   <time name="total">  478.83  478.43</time>
   <energy>
    <i name="e_fr_energy">   -367.23952602 </i>
    <i name="e_wo_entrp">   -367.05095067 </i>
    <i name="e_0_energy">   -367.17666757 </i>
   </energy>
  </scstep>
  <scstep>
   <time name="dav">  383.12  382.80</time>
   <time name="total">  385.71  385.39</time>
   <energy>
    <i name="alphaZ">  10302.80525912 </i>
    <i name="ewald">-155766.90576888 </i>
    <i name="hartreedc"> -58087.68677472 </i>
    <i name="XCdc">   5637.65217282 </i>
    <i name="pawpsdc"> 172763.40426794 </i>
    <i name="pawaedc">-181822.66677956 </i>
    <i name="eentropy">     -0.18857752 </i>
    <i name="bandstr"> -17406.94475633 </i>
    <i name="atom"> 224013.29143063 </i>
    <i name="e_fr_energy">   -367.23952651 </i>
    <i name="e_wo_entrp">   -367.05094899 </i>
    <i name="e_0_energy">   -367.17666734 </i>
   </energy>
  </scstep>
  <structure>
   <crystal>
    <varray name="basis" >
     <v>       0.00000000       6.94425000       6.94425000 </v>
     <v>       6.94425000       0.00000000       6.94425000 </v>
     <v>       6.94425000       6.94425000       0.00000000 </v>
    </varray>
    <i name="volume">    669.73969208 </i>
    <varray name="rec_basis" >
     <v>      -0.07200202       0.07200202       0.07200202 </v>
     <v>       0.07200202      -0.07200202       0.07200202 </v>
     <v>       0.07200202       0.07200202      -0.07200202 </v>
    </varray>
   </crystal>
   <varray name="positions" >
    <v>      -0.00216006       0.00216006       0.00216006 </v>
    <v>       0.00000000       0.00000000       0.25000000 </v>
    <v>       0.00000000       0.00000000       0.50000000 </v>
    <v>       0.00000000       0.00000000       0.75000000 </v>
    <v>       0.00000000       0.25000000       0.00000000 </v>
    <v>       0.00000000       0.25000000       0.25000000 </v>
    <v>       0.00000000       0.25000000       0.50000000 </v>
    <v>       0.00000000       0.25000000       0.75000000 </v>
    <v>       0.00000000       0.50000000       0.00000000 </v>
    <v>       0.00000000       0.50000000       0.25000000 </v>
    <v>       0.00000000       0.50000000       0.50000000 </v>
    <v>       0.00000000       0.50000000       0.75000000 </v>
    <v>       0.00000000       0.75000000       0.00000000 </v>
    <v>       0.00000000       0.75000000       0.25000000 </v>
    <v>       0.00000000       0.75000000       0.50000000 </v>
    <v>       0.00000000       0.75000000       0.75000000 </v>
    <v>       0.25000000       0.00000000       0.00000000 </v>
    <v>       0.25000000       0.00000000       0.25000000 </v>
    <v>       0.25000000       0.00000000       0.50000000 </v>
    <v>       0.25000000       0.00000000       0.75000000 </v>
    <v>       0.25000000       0.25000000       0.00000000 </v>
    <v>       0.25000000       0.25000000       0.25000000 </v>
    <v>       0.25000000       0.25000000       0.50000000 </v>
    <v>       0.25000000       0.25000000       0.75000000 </v>
    <v>       0.25000000       0.50000000       0.00000000 </v>
    <v>       0.25000000       0.50000000       0.25000000 </v>
    <v>       0.25000000       0.50000000       0.50000000 </v>
    <v>       0.25000000       0.50000000       0.75000000 </v>
    <v>       0.25000000       0.75000000       0.00000000 </v>
    <v>       0.25000000       0.75000000       0.25000000 </v>
    <v>       0.25000000       0.75000000       0.50000000 </v>
    <v>       0.25000000       0.75000000       0.75000000 </v>
    <v>       0.50000000       0.00000000       0.00000000 </v>
    <v>       0.50000000       0.00000000       0.25000000 </v>
    <v>       0.50000000       0.00000000       0.50000000 </v>
    <v>       0.50000000       0.00000000       0.75000000 </v>
    <v>       0.50000000       0.25000000       0.00000000 </v>
    <v>       0.50000000       0.25000000       0.25000000 </v>
    <v>       0.50000000       0.25000000       0.50000000 </v>
    <v>       0.50000000       0.25000000       0.75000000 </v>
    <v>       0.50000000       0.50000000       0.00000000 </v>
    <v>       0.50000000       0.50000000       0.25000000 </v>
    <v>       0.50000000       0.50000000       0.50000000 </v>
    <v>       0.50000000       0.50000000       0.75000000 </v>
    <v>       0.50000000       0.75000000       0.00000000 </v>
    <v>       0.50000000       0.75000000       0.25000000 </v>
    <v>       0.50000000       0.75000000       0.50000000 </v>
    <v>       0.50000000       0.75000000       0.75000000 </v>
    <v>       0.75000000       0.00000000       0.00000000 </v>
    <v>       0.75000000       0.00000000       0.25000000 </v>
    <v>       0.75000000       0.00000000       0.50000000 </v>
    <v>       0.75000000       0.00000000       0.75000000 </v>
    <v>       0.75000000       0.25000000       0.00000000 </v>
    <v>       0.75000000       0.25000000       0.25000000 </v>
    <v>       0.75000000       0.25000000       0.50000000 </v>
    <v>       0.75000000       0.25000000       0.75000000 </v>
    <v>       0.75000000       0.50000000       0.00000000 </v>
    <v>       0.75000000       0.50000000       0.25000000 </v>
    <v>       0.75000000       0.50000000       0.50000000 </v>
    <v>       0.75000000       0.50000000       0.75000000 </v>
    <v>       0.75000000       0.75000000       0.00000000 </v>
    <v>       0.75000000       0.75000000       0.25000000 </v>
    <v>       0.75000000       0.75000000       0.50000000 </v>
    <v>       0.75000000       0.75000000       0.75000000 </v>
   </varray>
  </structure>
  <varray name="forces" >
   <v>      -0.32484511       0.00000000       0.00000000 </v>
   <v>       0.04044761       0.04716414       0.00000000 </v>
   <v>       0.00008776      -0.00016173       0.00000000 </v>
   <v>       0.03700207       0.04235640       0.00000000 </v>
   <v>       0.04044761       0.00000000       0.04716414 </v>
   <v>       0.00246179       0.00158362       0.00158362 </v>
   <v>       0.00029350       0.00154011      -0.00061176 </v>
   <v>      -0.00245861       0.00051735      -0.00051735 </v>
   <v>       0.00008776       0.00000000      -0.00016173 </v>
   <v>       0.00029350      -0.00061176       0.00154011 </v>
   <v>      -0.00022155       0.00000000       0.00000000 </v>
   <v>       0.00036384      -0.00069028       0.00156828 </v>
   <v>       0.03700207       0.00000000       0.04235640 </v>
   <v>      -0.00245861      -0.00051735       0.00051735 </v>
   <v>       0.00036384       0.00156828      -0.00069028 </v>
   <v>       0.00239545       0.00147702       0.00147702 </v>
   <v>      -0.00245861      -0.00051735      -0.00051735 </v>
   <v>       0.00036384       0.00156828       0.00069028 </v>
   <v>       0.00239545       0.00147702      -0.00147702 </v>
   <v>       0.03700207       0.00000000      -0.04235640 </v>
   <v>       0.00036384       0.00069028       0.00156828 </v>
   <v>       0.00066014       0.00000000       0.00000000 </v>
   <v>       0.00029350       0.00061176      -0.00154011 </v>
   <v>      -0.00156711       0.00000000      -0.00001735 </v>
   <v>       0.00239545      -0.00147702       0.00147702 </v>
   <v>       0.00029350      -0.00154011       0.00061176 </v>
   <v>      -0.00088167      -0.00002217      -0.00002217 </v>
   <v>       0.00026444       0.00000000      -0.00011146 </v>
   <v>       0.03700207      -0.04235640       0.00000000 </v>
   <v>      -0.00156711      -0.00001735       0.00000000 </v>
   <v>       0.00026444      -0.00011146       0.00000000 </v>
   <v>       0.00444947       0.00000000       0.00000000 </v>
   <v>      -0.00022155       0.00000000       0.00000000 </v>
   <v>       0.00036384      -0.00069028      -0.00156828 </v>
   <v>       0.00008776      -0.00000000       0.00016173 </v>
   <v>       0.00029350      -0.00061176      -0.00154011 </v>
   <v>       0.00036384      -0.00156828      -0.00069028 </v>
   <v>       0.00246179      -0.00158362      -0.00158362 </v>
   <v>       0.00016062       0.00000000       0.00002615 </v>
   <v>      -0.00088167       0.00002217      -0.00002217 </v>
   <v>       0.00008776       0.00016173       0.00000000 </v>
   <v>       0.00016062       0.00002615       0.00000000 </v>
   <v>      -0.00173779       0.00000000       0.00000000 </v>
   <v>       0.00026444       0.00011146       0.00000000 </v>
   <v>       0.00029350      -0.00154011      -0.00061176 </v>
   <v>      -0.00088167      -0.00002217       0.00002217 </v>
   <v>       0.00026444       0.00000000       0.00011146 </v>
   <v>       0.00239545      -0.00147702      -0.00147702 </v>
   <v>      -0.00245861       0.00051735       0.00051735 </v>
   <v>       0.04044761       0.00000000      -0.04716414 </v>
   <v>       0.00246179       0.00158362      -0.00158362 </v>
   <v>       0.00029350       0.00154011       0.00061176 </v>
   <v>       0.04044761      -0.04716414       0.00000000 </v>
   <v>       0.00434808       0.00000000       0.00000000 </v>
   <v>       0.00016062      -0.00002615       0.00000000 </v>
   <v>      -0.00156711       0.00001735       0.00000000 </v>
   <v>       0.00246179      -0.00158362       0.00158362 </v>
   <v>       0.00016062       0.00000000      -0.00002615 </v>
   <v>      -0.00088167       0.00002217       0.00002217 </v>
   <v>       0.00036384      -0.00156828       0.00069028 </v>
   <v>       0.00029350       0.00061176       0.00154011 </v>
   <v>      -0.00156711       0.00000000       0.00001735 </v>
   <v>       0.00036384       0.00069028      -0.00156828 </v>
   <v>       0.00066014       0.00000000       0.00000000 </v>
  </varray>
  <varray name="stress" >
   <v>     -64.12961934       0.00000000       0.00000000 </v>
   <v>       0.00000000     -64.12811116      -0.00000000 </v>
   <v>       0.00000000      -0.00000000     -64.12811116 </v>
  </varray>
  <energy>
   <i name="e_fr_energy">   -367.23952651 </i>
   <i name="e_wo_entrp">   -367.17666734 </i>
   <i name="e_0_energy">     -0.18857752 </i>
  </energy>
  <kpoints>
   <generation param="Gamma">
    <v type="int" name="divisions">       3        3        3 </v>
    <v name="usershift">      0.00000000       0.00000000       0.00000000 </v>
    <v name="genvec1">      0.33333333       0.00000000       0.00000000 </v>
    <v name="genvec2">      0.00000000       0.33333333       0.00000000 </v>
    <v name="genvec3">      0.00000000       0.00000000       0.33333333 </v>
    <v name="shift">      0.00000000       0.00000000       0.00000000 </v>
   </generation>
   <varray name="kpointlist" >
    <v>       0.00000000       0.00000000       0.00000000 </v>
    <v>       0.33333333       0.00000000       0.00000000 </v>
    <v>       0.33333333       0.33333333       0.00000000 </v>
    <v>      -0.33333333       0.33333333       0.00000000 </v>
    <v>       0.00000000       0.33333333       0.33333333 </v>
    <v>      -0.33333333       0.33333333       0.33333333 </v>
   </varray>
   <varray name="weights" >
    <v>       0.03703704 </v>
    <v>       0.29629630 </v>
    <v>       0.14814815 </v>
    <v>       0.29629630 </v>
    <v>       0.07407407 </v>
    <v>       0.14814815 </v>
   </varray>
  </kpoints>
  <time name="totalsc">11720.1011710.42</time>
 </calculation>
 <calculation>
  <scstep>
   <time name="dav">  776.74  776.10</time>
   <time name="total">  805.52  804.86</time>
   <energy>
    <i name="alphaZ">  10302.80525912 </i>
    <i name="ewald">-155767.39594905 </i>
    <i name="hartreedc"> -58087.24117561 </i>
    <i name="XCdc">   5637.65153961 </i>
    <i name="pawpsdc"> 172763.40804904 </i>
    <i name="pawaedc">-181822.67160613 </i>
    <i name="eentropy">     -0.18862018 </i>
    <i name="bandstr"> -17406.75902551 </i>
    <i name="atom"> 224013.29143063 </i>
    <i name="e_fr_energy">   -367.10009809 </i>
    <i name="e_wo_entrp">   -366.91147791 </i>
    <i name="e_0_energy">   -367.03722470 </i>
   </energy>
  </scstep>
  <scstep>
   <time name="dav">  617.87  617.37</time>
   <time name="total">  641.43  640.90</time>
   <energy>
    <i name="e_fr_energy">   -367.24325220 </i>
    <i name="e_wo_entrp">   -367.05451708 </i>
    <i name="e_0_energy">   -367.18034049 </i>
   </energy>
  </scstep>
  <scstep>
   <time name="dav">  727.45  726.85</time>
   <time name="total">  750.80  750.18</time>
   <energy>
    <i name="e_fr_energy">   -367.24322993 </i>
    <i name="e_wo_entrp">   -367.05450732 </i>
    <i name="e_0_energy">   -367.18032240 </i>
   </energy>
  </scstep>
  <scstep>
   <time name="dav">  730.59  730.00</time>
   <time name="total">  753.97  753.35</time>
   <energy>
    <i name="e_fr_energy">   -367.24432267 </i>
    <i name="e_wo_entrp">   -367.05560693 </i>
    <i name="e_0_energy">   -367.18141742 </i>
   </energy>
  </scstep>
  <scstep>
   <time name="dav">  646.81  646.27</time>
   <time name="total">  670.22  669.66</time>
   <energy>
    <i name="e_fr_energy">   -367.24326114 </i>
    <i name="e_wo_entrp">   -367.05456965 </i>
    <i name="e_0_energy">   -367.18036398 </i>
   </energy>
  </scstep>
  <scstep>
   <time name="dav">  690.48  689.91</time>
   <time name="total">  713.85  713.27</time>
   <energy>
    <i name="e_fr_energy">   -367.24322754 </i>
    <i name="e_wo_entrp">   -367.05454083 </i>
    <i name="e_0_energy">   -367.18033197 </i>
   </energy>
  </scstep>
  <scstep>
   <time name="dav">  665.69  665.15</time>
   <time name="total">  692.52  691.96</time>
   <energy>
    <i name="e_fr_energy">   -367.24320821 </i>
    <i name="e_wo_entrp">   -367.05453070 </i>
    <i name="e_0_energy">   -367.18031571 </i>
   </energy>
  </scstep>
  <scstep>
   <time name="dav">  661.48  660.93</time>
   <time name="total">  688.34  687.77</time>
   <energy>
    <i name="e_fr_energy">   -367.24318650 </i>
    <i name="e_wo_entrp">   -367.05451755 </i>
    <i name="e_0_energy">   -367.18029685 </i>
   </energy>
  </scstep>
  <scstep>
   <time name="dav">  674.57  674.01</time>
   <time name="total">  701.39  700.81</time>
   <energy>
    <i name="e_fr_energy">   -367.24322456 </i>
    <i name="e_wo_entrp">   -367.05456415 </i>
    <i name="e_0_energy">   -367.18033776 </i>
   </energy>
  </scstep>
  <scstep>
   <time name="dav">  671.63  671.07</time>
   <time name="total">  698.47  697.89</time>
   <energy>
    <i name="e_fr_energy">   -367.24316574 </i>
    <i name="e_wo_entrp">   -367.05450735 </i>
    <i name="e_0_energy">   -367.18027961 </i>
   </energy>
  </scstep>
  <scstep>
   <time name="dav">  729.98  729.38</time>
   <time name="total">  756.83  756.21</time>
   <energy>
    <i name="e_fr_energy">   -367.24315886 </i>
    <i name="e_wo_entrp">   -367.05450216 </i>
    <i name="e_0_energy">   -367.18027329 </i>
   </energy>
  </scstep>
  <scstep>
   <time name="dav">  584.11  583.63</time>
   <time name="total">  611.00  610.50</time>
   <energy>
    <i name="e_fr_energy">   -367.24316023 </i>
    <i name="e_wo_entrp">   -367.05450420 </i>
    <i name="e_0_energy">   -367.18027488 </i>
   </energy>
  </scstep>
  <scstep>
   <time name="dav">  423.40  423.06</time>
   <time name="total">  450.28  449.91</time>
   <energy>
    <i name="e_fr_energy">   -367.24315881 </i>
    <i name="e_wo_entrp">   -367.05450344 </i>
    <i name="e_0_energy">   -367.18027369 </i>
   </energy>
  </scstep>
  <scstep>
   <time name="dav">  373.99  373.68</time>
   <time name="total">  376.29  375.98</time>
   <energy>
    <i name="alphaZ">  10302.80525912 </i>
    <i name="ewald">-155767.39594905 </i>
    <i name="hartreedc"> -58087.21679991 </i>
    <i name="XCdc">   5637.65058238 </i>
    <i name="pawpsdc"> 172763.22084541 </i>
    <i name="pawaedc">-181822.48228617 </i>
    <i name="eentropy">     -0.18865696 </i>
    <i name="bandstr"> -17406.92758450 </i>
    <i name="atom"> 224013.29143063 </i>
    <i name="e_fr_energy">   -367.24315906 </i>
    <i name="e_wo_entrp">   -367.05450210 </i>
    <i name="e_0_energy">   -367.18027341 </i>
   </energy>
  </scstep>
  <structure>
   <crystal>
    <varray name="basis" >
     <v>       0.00000000       6.94425000       6.94425000 </v>
     <v>       6.94425000       0.00000000       6.94425000 </v>
     <v>       6.94425000       6.94425000       0.00000000 </v>
    </varray>
    <i name="volume">    669.73969208 </i>
    <varray name="rec_basis" >
     <v>      -0.07200202       0.07200202       0.07200202 </v>
     <v>       0.07200202      -0.07200202       0.07200202 </v>
     <v>       0.07200202       0.07200202      -0.07200202 </v>
    </varray>
   </crystal>
   <varray name="positions" >
    <v>      -0.00108003       0.00108003       0.00108003 </v>
    <v>       0.00000000       0.00000000       0.25000000 </v>
    <v>       0.00000000       0.00000000       0.50000000 </v>
    <v>       0.00000000       0.00000000       0.75000000 </v>
    <v>       0.00000000       0.25000000       0.00000000 </v>
    <v>       0.00000000       0.25000000       0.25000000 </v>
    <v>       0.00000000       0.25000000       0.50000000 </v>
    <v>       0.00000000       0.25000000       0.75000000 </v>
    <v>       0.00000000       0.50000000       0.00000000 </v>
    <v>       0.00000000       0.50000000       0.25000000 </v>
    <v>       0.00000000       0.50000000       0.50000000 </v>
    <v>       0.00000000       0.50000000       0.75000000 </v>
    <v>       0.00000000       0.75000000       0.00000000 </v>
    <v>       0.00000000       0.75000000       0.25000000 </v>
    <v>       0.00000000       0.75000000       0.50000000 </v>
    <v>       0.00000000       0.75000000       0.75000000 </v>
    <v>       0.25000000       0.00000000       0.00000000 </v>
    <v>       0.25000000       0.00000000       0.25000000 </v>
    <v>       0.25000000       0.00000000       0.50000000 </v>
    <v>       0.25000000       0.00000000       0.75000000 </v>
    <v>       0.25000000       0.25000000       0.00000000 </v>
    <v>       0.25000000       0.25000000       0.25000000 </v>
    <v>       0.25000000       0.25000000       0.50000000 </v>
    <v>       0.25000000       0.25000000       0.75000000 </v>
    <v>       0.25000000       0.50000000       0.00000000 </v>
    <v>       0.25000000       0.50000000       0.25000000 </v>
    <v>       0.25000000       0.50000000       0.50000000 </v>
    <v>       0.25000000       0.50000000       0.75000000 </v>
    <v>       0.25000000       0.75000000       0.00000000 </v>
    <v>       0.25000000       0.75000000       0.25000000 </v>
    <v>       0.25000000       0.75000000       0.50000000 </v>
    <v>       0.25000000       0.75000000       0.75000000 </v>
    <v>       0.50000000       0.00000000       0.00000000 </v>
    <v>       0.50000000       0.00000000       0.25000000 </v>
    <v>       0.50000000       0.00000000       0.50000000 </v>
    <v>       0.50000000       0.00000000       0.75000000 </v>
    <v>       0.50000000       0.25000000       0.00000000 </v>
    <v>       0.50000000       0.25000000       0.25000000 </v>
    <v>       0.50000000       0.25000000       0.50000000 </v>
    <v>       0.50000000       0.25000000       0.75000000 </v>
    <v>       0.50000000       0.50000000       0.00000000 </v>
    <v>       0.50000000       0.50000000       0.25000000 </v>
    <v>       0.50000000       0.50000000       0.50000000 </v>
    <v>       0.50000000       0.50000000       0.75000000 </v>
    <v>       0.50000000       0.75000000       0.00000000 </v>
    <v>       0.50000000       0.75000000       0.25000000 </v>
    <v>       0.50000000       0.75000000       0.50000000 </v>
    <v>       0.50000000       0.75000000       0.75000000 </v>
    <v>       0.75000000       0.00000000       0.00000000 </v>
    <v>       0.75000000       0.00000000       0.25000000 </v>
    <v>       0.75000000       0.00000000       0.50000000 </v>
    <v>       0.75000000       0.00000000       0.75000000 </v>
    <v>       0.75000000       0.25000000       0.00000000 </v>
    <v>       0.75000000       0.25000000       0.25000000 </v>
    <v>       0.75000000       0.25000000       0.50000000 </v>
    <v>       0.75000000       0.25000000       0.75000000 </v>
    <v>       0.75000000       0.50000000       0.00000000 </v>
    <v>       0.75000000       0.50000000       0.25000000 </v>
    <v>       0.75000000       0.50000000       0.50000000 </v>
    <v>       0.75000000       0.50000000       0.75000000 </v>
    <v>       0.75000000       0.75000000       0.00000000 </v>
    <v>       0.75000000       0.75000000       0.25000000 </v>
    <v>       0.75000000       0.75000000       0.50000000 </v>
    <v>       0.75000000       0.75000000       0.75000000 </v>
   </varray>
  </structure>
  <varray name="forces" >
   <v>      -0.15846862       0.00000000       0.00000000 </v>
   <v>       0.01943122       0.02252815       0.00000000 </v>
   <v>      -0.00005729       0.00006819       0.00000000 </v>
   <v>       0.01877181       0.02145880       0.00000000 </v>
   <v>       0.01943122       0.00000000       0.02252815 </v>
   <v>       0.00112979       0.00088131       0.00088131 </v>
   <v>       0.00009779       0.00080791      -0.00031674 </v>
   <v>      -0.00094486       0.00020447      -0.00020447 </v>
   <v>      -0.00005729       0.00000000       0.00006819 </v>
   <v>       0.00009779      -0.00031674       0.00080791 </v>
   <v>      -0.00003583       0.00000000       0.00000000 </v>
   <v>       0.00011898      -0.00039009       0.00086780 </v>
   <v>       0.01877181       0.00000000       0.02145880 </v>
   <v>      -0.00094486      -0.00020447       0.00020447 </v>
   <v>       0.00011898       0.00086780      -0.00039009 </v>
   <v>       0.00105019       0.00079867       0.00079867 </v>
   <v>      -0.00094486      -0.00020447      -0.00020447 </v>
   <v>       0.00011898       0.00086780       0.00039009 </v>
   <v>       0.00105019       0.00079867      -0.00079867 </v>
   <v>       0.01877181       0.00000000      -0.02145880 </v>
   <v>       0.00011898       0.00039009       0.00086780 </v>
   <v>       0.00008898       0.00000000       0.00000000 </v>
   <v>       0.00009779       0.00031674      -0.00080791 </v>
   <v>      -0.00072363       0.00000000       0.00000961 </v>
   <v>       0.00105019      -0.00079867       0.00079867 </v>
   <v>       0.00009779      -0.00080791       0.00031674 </v>
   <v>      -0.00037776      -0.00004614      -0.00004614 </v>
   <v>       0.00011617       0.00000000      -0.00009910 </v>
   <v>       0.01877181      -0.02145880       0.00000000 </v>
   <v>      -0.00072363       0.00000961       0.00000000 </v>
   <v>       0.00011617      -0.00009910       0.00000000 </v>
   <v>       0.00185661       0.00000000       0.00000000 </v>
   <v>      -0.00003583       0.00000000       0.00000000 </v>
   <v>       0.00011898      -0.00039009      -0.00086780 </v>
   <v>      -0.00005729       0.00000000      -0.00006819 </v>
   <v>       0.00009779      -0.00031674      -0.00080791 </v>
   <v>       0.00011898      -0.00086780      -0.00039009 </v>
   <v>       0.00112979      -0.00088131      -0.00088131 </v>
   <v>       0.00004287       0.00000000       0.00000031 </v>
   <v>      -0.00037776       0.00004614      -0.00004614 </v>
   <v>      -0.00005729      -0.00006819       0.00000000 </v>
   <v>       0.00004287       0.00000031       0.00000000 </v>
   <v>      -0.00085494       0.00000000       0.00000000 </v>
   <v>       0.00011617       0.00009910       0.00000000 </v>
   <v>       0.00009779      -0.00080791      -0.00031674 </v>
   <v>      -0.00037776      -0.00004614       0.00004614 </v>
   <v>       0.00011617       0.00000000       0.00009910 </v>
   <v>       0.00105019      -0.00079867      -0.00079867 </v>
   <v>      -0.00094486       0.00020447       0.00020447 </v>
   <v>       0.01943122       0.00000000      -0.02252815 </v>
   <v>       0.00112979       0.00088131      -0.00088131 </v>
   <v>       0.00009779       0.00080791       0.00031674 </v>
   <v>       0.01943122      -0.02252815       0.00000000 </v>
   <v>       0.00187244       0.00000000       0.00000000 </v>
   <v>       0.00004287      -0.00000031       0.00000000 </v>
   <v>      -0.00072363      -0.00000961       0.00000000 </v>
   <v>       0.00112979      -0.00088131       0.00088131 </v>
   <v>       0.00004287       0.00000000      -0.00000031 </v>
   <v>      -0.00037776       0.00004614       0.00004614 </v>
   <v>       0.00011898      -0.00086780       0.00039009 </v>
   <v>       0.00009779       0.00031674       0.00080791 </v>
   <v>      -0.00072363       0.00000000      -0.00000961 </v>
   <v>       0.00011898       0.00039009      -0.00086780 </v>
   <v>       0.00008898       0.00000000       0.00000000 </v>
  </varray>
  <varray name="stress" >
   <v>     -64.21486374      -0.00000000       0.00000000 </v>
   <v>      -0.00000000     -64.21806718       0.00000000 </v>
   <v>       0.00000000       0.00000000     -64.21806718 </v>
  </varray>
  <energy>
   <i name="e_fr_energy">   -367.24315906 </i>
   <i name="e_wo_entrp">   -367.18027341 </i>
   <i name="e_0_energy">     -0.18865696 </i>
  </energy>
  <kpoints>
   <generation param="Gamma">
    <v type="int" name="divisions">       3        3        3 </v>
    <v name="usershift">      0.00000000       0.00000000       0.00000000 </v>
    <v name="genvec1">      0.33333333       0.00000000       0.00000000 </v>
    <v name="genvec2">      0.00000000       0.33333333       0.00000000 </v>
    <v name="genvec3">      0.00000000       0.00000000       0.33333333 </v>
    <v name="shift">      0.00000000       0.00000000       0.00000000 </v>
   </generation>
   <varray name="kpointlist" >
    <v>       0.00000000       0.00000000       0.00000000 </v>
    <v>       0.33333333       0.00000000       0.00000000 </v>
    <v>       0.33333333       0.33333333       0.00000000 </v>
    <v>      -0.33333333       0.33333333       0.00000000 </v>
    <v>       0.00000000       0.33333333       0.33333333 </v>
    <v>      -0.33333333       0.33333333       0.33333333 </v>
   </varray>
   <varray name="weights" >
    <v>       0.03703704 </v>
    <v>       0.29629630 </v>
    <v>       0.14814815 </v>
    <v>       0.29629630 </v>
    <v>       0.07407407 </v>
    <v>       0.14814815 </v>
   </varray>
  </kpoints>
  <time name="totalsc">10018.2610010.03</time>
 </calculation>
 <calculation>
  <scstep>
   <time name="dav">  711.24  710.66</time>
   <time name="total">  738.07  737.46</time>
   <energy>
    <i name="alphaZ">  10302.80525912 </i>
    <i name="ewald">-155767.39594905 </i>
    <i name="hartreedc"> -58087.26068024 </i>
    <i name="XCdc">   5637.65290717 </i>
    <i name="pawpsdc"> 172763.20360514 </i>
    <i name="pawaedc">-181822.46409647 </i>
    <i name="eentropy">     -0.18863123 </i>
    <i name="bandstr"> -17406.59926759 </i>
    <i name="atom"> 224013.29143063 </i>
    <i name="e_fr_energy">   -366.95542253 </i>
    <i name="e_wo_entrp">   -366.76679130 </i>
    <i name="e_0_energy">   -366.89254545 </i>
   </energy>
  </scstep>
  <scstep>
   <time name="dav">  595.23  594.73</time>
   <time name="total">  618.59  618.07</time>
   <energy>
    <i name="e_fr_energy">   -367.25347686 </i>
    <i name="e_wo_entrp">   -367.06488239 </i>
    <i name="e_0_energy">   -367.19061204 </i>
   </energy>
  </scstep>
  <scstep>
   <time name="dav">  661.28  660.74</time>
   <time name="total">  684.63  684.07</time>
   <energy>
    <i name="e_fr_energy">   -367.24689859 </i>
    <i name="e_wo_entrp">   -367.05797788 </i>
    <i name="e_0_energy">   -367.18392502 </i>
   </energy>
  </scstep>
  <scstep>
   <time name="dav">  687.26  686.69</time>
   <time name="total">  710.60  710.01</time>
   <energy>
    <i name="e_fr_energy">   -367.25059834 </i>
    <i name="e_wo_entrp">   -367.06180504 </i>
    <i name="e_0_energy">   -367.18766724 </i>
   </energy>
  </scstep>
  <scstep>
   <time name="dav">  609.34 2420.32</time>
   <time name="total">  632.67 2443.64</time>
   <energy>
    <i name="e_fr_energy">   -367.24388978 </i>
    <i name="e_wo_entrp">   -367.05513180 </i>
    <i name="e_0_energy">   -367.18097046 </i>
   </energy>
  </scstep>
  <scstep>
   <time name="dav">  678.61  678.06</time>
   <time name="total">  701.99  701.42</time>
   <energy>
    <i name="e_fr_energy">   -367.24374377 </i>
    <i name="e_wo_entrp">   -367.05499622 </i>
    <i name="e_0_energy">   -367.18082792 </i>
   </energy>
  </scstep>
  <scstep>
   <time name="dav">  619.57  619.06</time>
   <time name="total">  646.37  645.84</time>
   <energy>
    <i name="e_fr_energy">   -367.24357859 </i>
    <i name="e_wo_entrp">   -367.05486537 </i>
    <i name="e_0_energy">   -367.18067418 </i>
   </energy>
  </scstep>
  <scstep>
   <time name="dav">  627.17  626.67</time>
   <time name="total">  654.01  653.49</time>
   <energy>
    <i name="e_fr_energy">   -367.24345724 </i>
    <i name="e_wo_entrp">   -367.05477189 </i>
    <i name="e_0_energy">   -367.18056212 </i>
   </energy>
  </scstep>
  <scstep>
   <time name="dav">  635.49  634.97</time>
   <time name="total">  662.31  661.77</time>
   <energy>
    <i name="e_fr_energy">   -367.24354626 </i>
    <i name="e_wo_entrp">   -367.05488906 </i>
    <i name="e_0_energy">   -367.18066053 </i>
   </energy>
  </scstep>
  <scstep>
   <time name="dav">  685.57  685.01</time>
   <time name="total">  712.36  711.77</time>
   <energy>
    <i name="e_fr_energy">   -367.24321291 </i>
    <i name="e_wo_entrp">   -367.05458596 </i>
    <i name="e_0_energy">   -367.18033726 </i>
   </energy>
  </scstep>
  <scstep>
   <time name="dav">  698.92  698.36</time>
   <time name="total">  725.83  725.25</time>
   <energy>
    <i name="e_fr_energy">   -367.24315644 </i>
    <i name="e_wo_entrp">   -367.05452803 </i>
    <i name="e_0_energy">   -367.18028030 </i>
   </energy>
  </scstep>
  <scstep>
   <time name="dav">  680.31  679.75</time>
   <time name="total">  704.89  704.31</time>
   <energy>
    <i name="e_fr_energy">   -367.24316696 </i>
    <i name="e_wo_entrp">   -367.05453251 </i>
    <i name="e_0_energy">   -367.18028881 </i>
   </energy>
  </scstep>
  <scstep>
   <time name="dav">  595.67  595.18</time>
   <time name="total">  620.26  619.74</time>
   <energy>
    <i name="e_fr_energy">   -367.24315875 </i>
    <i name="e_wo_entrp">   -367.05452000 </i>
    <i name="e_0_energy">   -367.18027917 </i>
   </energy>
  </scstep>
  <scstep>
   <time name="dav">  468.97  468.59</time>
   <time name="total">  493.53  493.13</time>
   <energy>
    <i name="e_fr_energy">   -367.24316095 </i>
    <i name="e_wo_entrp">   -367.05451530 </i>
    <i name="e_0_energy">   -367.18027907 </i>
   </energy>
  </scstep>
  <scstep>
   <time name="dav">  402.53  402.21</time>
   <time name="total">  427.08  426.73</time>
   <energy>
    <i name="e_fr_energy">   -367.24315876 </i>
    <i name="e_wo_entrp">   -367.05450513 </i>
    <i name="e_0_energy">   -367.18027422 </i>
   </energy>
  </scstep>
  <scstep>
   <time name="dav">  355.42  355.14</time>
   <time name="total">  357.71  357.42</time>
   <energy>
    <i name="alphaZ">  10302.80525912 </i>
    <i name="ewald">-155767.39594905 </i>
    <i name="hartreedc"> -58087.21083942 </i>
    <i name="XCdc">   5637.65036037 </i>
    <i name="pawpsdc"> 172763.20943394 </i>
    <i name="pawaedc">-181822.47008223 </i>
    <i name="eentropy">     -0.18865552 </i>
    <i name="bandstr"> -17406.93411698 </i>
    <i name="atom"> 224013.29143063 </i>
    <i name="e_fr_energy">   -367.24315914 </i>
    <i name="e_wo_entrp">   -367.05450362 </i>
    <i name="e_0_energy">   -367.18027397 </i>
   </energy>
  </scstep>
  <structure>
   <crystal>
    <varray name="basis" >
     <v>       0.00000000       6.94425000       6.94425000 </v>
     <v>       6.94425000       0.00000000       6.94425000 </v>
     <v>       6.94425000       6.94425000       0.00000000 </v>
    </varray>
    <i name="volume">    669.73969208 </i>
    <varray name="rec_basis" >
     <v>      -0.07200202       0.07200202       0.07200202 </v>
     <v>       0.07200202      -0.07200202       0.07200202 </v>
     <v>       0.07200202       0.07200202      -0.07200202 </v>
    </varray>
   </crystal>
   <varray name="positions" >
    <v>       0.00108003      -0.00108003      -0.00108003 </v>
    <v>       0.00000000       0.00000000       0.25000000 </v>
    <v>       0.00000000       0.00000000       0.50000000 </v>
    <v>       0.00000000       0.00000000       0.75000000 </v>
    <v>       0.00000000       0.25000000       0.00000000 </v>
    <v>       0.00000000       0.25000000       0.25000000 </v>
    <v>       0.00000000       0.25000000       0.50000000 </v>
    <v>       0.00000000       0.25000000       0.75000000 </v>
    <v>       0.00000000       0.50000000       0.00000000 </v>
    <v>       0.00000000       0.50000000       0.25000000 </v>
    <v>       0.00000000       0.50000000       0.50000000 </v>
    <v>       0.00000000       0.50000000       0.75000000 </v>
    <v>       0.00000000       0.75000000       0.00000000 </v>
    <v>       0.00000000       0.75000000       0.25000000 </v>
    <v>       0.00000000       0.75000000       0.50000000 </v>
    <v>       0.00000000       0.75000000       0.75000000 </v>
    <v>       0.25000000       0.00000000       0.00000000 </v>
    <v>       0.25000000       0.00000000       0.25000000 </v>
    <v>       0.25000000       0.00000000       0.50000000 </v>
    <v>       0.25000000       0.00000000       0.75000000 </v>
    <v>       0.25000000       0.25000000       0.00000000 </v>
    <v>       0.25000000       0.25000000       0.25000000 </v>
    <v>       0.25000000       0.25000000       0.50000000 </v>
    <v>       0.25000000       0.25000000       0.75000000 </v>
    <v>       0.25000000       0.50000000       0.00000000 </v>
    <v>       0.25000000       0.50000000       0.25000000 </v>
    <v>       0.25000000       0.50000000       0.50000000 </v>
    <v>       0.25000000       0.50000000       0.75000000 </v>
    <v>       0.25000000       0.75000000       0.00000000 </v>
    <v>       0.25000000       0.75000000       0.25000000 </v>
    <v>       0.25000000       0.75000000       0.50000000 </v>
    <v>       0.25000000       0.75000000       0.75000000 </v>
    <v>       0.50000000       0.00000000       0.00000000 </v>
    <v>       0.50000000       0.00000000       0.25000000 </v>
    <v>       0.50000000       0.00000000       0.50000000 </v>
    <v>       0.50000000       0.00000000       0.75000000 </v>
    <v>       0.50000000       0.25000000       0.00000000 </v>
    <v>       0.50000000       0.25000000       0.25000000 </v>
    <v>       0.50000000       0.25000000       0.50000000 </v>
    <v>       0.50000000       0.25000000       0.75000000 </v>
    <v>       0.50000000       0.50000000       0.00000000 </v>
    <v>       0.50000000       0.50000000       0.25000000 </v>
    <v>       0.50000000       0.50000000       0.50000000 </v>
    <v>       0.50000000       0.50000000       0.75000000 </v>
    <v>       0.50000000       0.75000000       0.00000000 </v>
    <v>       0.50000000       0.75000000       0.25000000 </v>
    <v>       0.50000000       0.75000000       0.50000000 </v>
    <v>       0.50000000       0.75000000       0.75000000 </v>
    <v>       0.75000000       0.00000000       0.00000000 </v>
    <v>       0.75000000       0.00000000       0.25000000 </v>
    <v>       0.75000000       0.00000000       0.50000000 </v>
    <v>       0.75000000       0.00000000       0.75000000 </v>
    <v>       0.75000000       0.25000000       0.00000000 </v>
    <v>       0.75000000       0.25000000       0.25000000 </v>
    <v>       0.75000000       0.25000000       0.50000000 </v>
    <v>       0.75000000       0.25000000       0.75000000 </v>
    <v>       0.75000000       0.50000000       0.00000000 </v>
    <v>       0.75000000       0.50000000       0.25000000 </v>
    <v>       0.75000000       0.50000000       0.50000000 </v>
    <v>       0.75000000       0.50000000       0.75000000 </v>
    <v>       0.75000000       0.75000000       0.00000000 </v>
    <v>       0.75000000       0.75000000       0.25000000 </v>
    <v>       0.75000000       0.75000000       0.50000000 </v>
    <v>       0.75000000       0.75000000       0.75000000 </v>
   </varray>
  </structure>
  <varray name="forces" >
[...]
       <r>    24.1199     0.0000   646.0000 </r>
       <r>    24.4070     0.0000   646.0000 </r>
       <r>    24.6941     0.0000   646.0000 </r>
       <r>    24.9811     0.0000   646.0000 </r>
       <r>    25.2682     0.0000   646.0000 </r>
       <r>    25.5552     0.0000   646.0000 </r>
       <r>    25.8423     0.0000   646.0000 </r>
       <r>    26.1293     0.0000   646.0000 </r>
       <r>    26.4164     0.0000   646.0000 </r>
      </set>
      <set comment="spin 2">
       <r>   -59.7001     0.0000     0.0000 </r>
       <r>   -59.4131     0.0000     0.0000 </r>
       <r>   -59.1260     0.0000     0.0000 </r>
       <r>   -58.8390     0.0000     0.0000 </r>
       <r>   -58.5519     0.0000     0.0000 </r>
       <r>   -58.2649     0.0000     0.0000 </r>
       <r>   -57.9778     0.0000     0.0000 </r>
       <r>   -57.6908     0.0000     0.0000 </r>
       <r>   -57.4037     0.0000     0.0000 </r>
       <r>   -57.1166     0.0000     0.0000 </r>
       <r>   -56.8296    -0.0000    -0.0000 </r>
       <r>   -56.5425    -0.0000    -0.0000 </r>
       <r>   -56.2555    -0.0000    -0.0000 </r>
       <r>   -55.9684    -0.0000    -0.0000 </r>
       <r>   -55.6814    -0.0000    -0.0000 </r>
       <r>   -55.3943    -0.2323    -0.0667 </r>
       <r>   -55.1073   -13.4449    -3.9261 </r>
       <r>   -54.8202   279.5054    76.3074 </r>
       <r>   -54.5331   418.7044   196.4986 </r>
       <r>   -54.2461   -15.0912   192.1665 </r>
       <r>   -53.9590    -0.5800   192.0000 </r>
       <r>   -53.6720    -0.0001   192.0000 </r>
       <r>   -53.3849    -0.0000   192.0000 </r>
       <r>   -53.0979     0.0000   192.0000 </r>
       <r>   -52.8108     0.0000   192.0000 </r>
       <r>   -52.5238     0.0000   192.0000 </r>
       <r>   -52.2367     0.0000   192.0000 </r>
       <r>   -51.9496     0.0000   192.0000 </r>
       <r>   -51.6626     0.0000   192.0000 </r>
       <r>   -51.3755     0.0000   192.0000 </r>
       <r>   -51.0885     0.0000   192.0000 </r>
       <r>   -50.8014     0.0000   192.0000 </r>
       <r>   -50.5144     0.0000   192.0000 </r>
       <r>   -50.2273     0.0000   192.0000 </r>
       <r>   -49.9403     0.0000   192.0000 </r>
       <r>   -49.6532     0.0000   192.0000 </r>
       <r>   -49.3662     0.0000   192.0000 </r>
       <r>   -49.0791     0.0000   192.0000 </r>
       <r>   -48.7920     0.0000   192.0000 </r>
       <r>   -48.5050     0.0000   192.0000 </r>
       <r>   -48.2179     0.0000   192.0000 </r>
       <r>   -47.9309     0.0000   192.0000 </r>
       <r>   -47.6438     0.0000   192.0000 </r>
       <r>   -47.3568     0.0000   192.0000 </r>
       <r>   -47.0697     0.0000   192.0000 </r>
       <r>   -46.7827     0.0000   192.0000 </r>
       <r>   -46.4956     0.0000   192.0000 </r>
       <r>   -46.2085     0.0000   192.0000 </r>
       <r>   -45.9215     0.0000   192.0000 </r>
       <r>   -45.6344     0.0000   192.0000 </r>
       <r>   -45.3474     0.0000   192.0000 </r>
       <r>   -45.0603     0.0000   192.0000 </r>
       <r>   -44.7733     0.0000   192.0000 </r>
       <r>   -44.4862     0.0000   192.0000 </r>
       <r>   -44.1992     0.0000   192.0000 </r>
       <r>   -43.9121     0.0000   192.0000 </r>
       <r>   -43.6251     0.0000   192.0000 </r>
       <r>   -43.3380     0.0000   192.0000 </r>
       <r>   -43.0509     0.0000   192.0000 </r>
       <r>   -42.7639     0.0000   192.0000 </r>
       <r>   -42.4768     0.0000   192.0000 </r>
       <r>   -42.1898     0.0000   192.0000 </r>
       <r>   -41.9027     0.0000   192.0000 </r>
       <r>   -41.6157     0.0000   192.0000 </r>
       <r>   -41.3286     0.0000   192.0000 </r>
       <r>   -41.0416     0.0000   192.0000 </r>
       <r>   -40.7545     0.0000   192.0000 </r>
       <r>   -40.4674     0.0000   192.0000 </r>
       <r>   -40.1804     0.0000   192.0000 </r>
       <r>   -39.8933     0.0000   192.0000 </r>
       <r>   -39.6063     0.0000   192.0000 </r>
       <r>   -39.3192     0.0000   192.0000 </r>
       <r>   -39.0322     0.0000   192.0000 </r>
       <r>   -38.7451     0.0000   192.0000 </r>
       <r>   -38.4581     0.0000   192.0000 </r>
       <r>   -38.1710     0.0000   192.0000 </r>
       <r>   -37.8840     0.0000   192.0000 </r>
       <r>   -37.5969     0.0000   192.0000 </r>
       <r>   -37.3098     0.0000   192.0000 </r>
       <r>   -37.0228     0.0000   192.0000 </r>
       <r>   -36.7357     0.0000   192.0000 </r>
       <r>   -36.4487     0.0000   192.0000 </r>
       <r>   -36.1616     0.0000   192.0000 </r>
       <r>   -35.8746     0.0000   192.0000 </r>
       <r>   -35.5875     0.0000   192.0000 </r>
       <r>   -35.3005     0.0000   192.0000 </r>
       <r>   -35.0134     0.0000   192.0000 </r>
       <r>   -34.7263     0.0000   192.0000 </r>
       <r>   -34.4393     0.0000   192.0000 </r>
       <r>   -34.1522     0.0000   192.0000 </r>
       <r>   -33.8652     0.0000   192.0000 </r>
       <r>   -33.5781     0.0000   192.0000 </r>
       <r>   -33.2911     0.0000   192.0000 </r>
       <r>   -33.0040     0.0000   192.0000 </r>
       <r>   -32.7170     0.0000   192.0000 </r>
       <r>   -32.4299     0.0000   192.0000 </r>
       <r>   -32.1428     0.0000   192.0000 </r>
       <r>   -31.8558     0.0000   192.0000 </r>
       <r>   -31.5687     0.0000   192.0000 </r>
       <r>   -31.2817     0.0000   192.0000 </r>
       <r>   -30.9946     0.0000   192.0000 </r>
       <r>   -30.7076     0.0000   192.0000 </r>
       <r>   -30.4205     0.0000   192.0000 </r>
       <r>   -30.1335     0.0000   192.0000 </r>
       <r>   -29.8464     0.0000   192.0000 </r>
       <r>   -29.5594     0.0000   192.0000 </r>
       <r>   -29.2723     0.0000   192.0000 </r>
       <r>   -28.9852     0.0000   192.0000 </r>
       <r>   -28.6982     0.0000   192.0000 </r>
       <r>   -28.4111     0.0000   192.0000 </r>
       <r>   -28.1241     0.0000   192.0000 </r>
       <r>   -27.8370     0.0000   192.0000 </r>
       <r>   -27.5500     0.0000   192.0000 </r>
       <r>   -27.2629     0.0000   192.0000 </r>
       <r>   -26.9759     0.0000   192.0000 </r>
       <r>   -26.6888     0.0000   192.0000 </r>
       <r>   -26.4017     0.0000   192.0000 </r>
       <r>   -26.1147     0.0000   192.0000 </r>
       <r>   -25.8276     0.0000   192.0000 </r>
       <r>   -25.5406     0.0000   192.0000 </r>
       <r>   -25.2535     0.0000   192.0000 </r>
       <r>   -24.9665     0.0000   192.0000 </r>
       <r>   -24.6794     0.0000   192.0000 </r>
       <r>   -24.3924     0.0000   192.0000 </r>
       <r>   -24.1053     0.0000   192.0000 </r>
       <r>   -23.8183     0.0000   192.0000 </r>
       <r>   -23.5312     0.0000   192.0000 </r>
       <r>   -23.2441     0.0000   192.0000 </r>
       <r>   -22.9571     0.0000   192.0000 </r>
       <r>   -22.6700     0.0000   192.0000 </r>
       <r>   -22.3830     0.0000   192.0000 </r>
       <r>   -22.0959     0.0000   192.0000 </r>
       <r>   -21.8089     0.0000   192.0000 </r>
       <r>   -21.5218     0.0000   192.0000 </r>
       <r>   -21.2348     0.0000   192.0000 </r>
       <r>   -20.9477     0.0000   192.0000 </r>
       <r>   -20.6606     0.0000   192.0000 </r>
       <r>   -20.3736     0.0000   192.0000 </r>
       <r>   -20.0865     0.0000   192.0000 </r>
       <r>   -19.7995     0.0000   192.0000 </r>
       <r>   -19.5124     0.0000   192.0000 </r>
       <r>   -19.2254     0.0000   192.0000 </r>
       <r>   -18.9383     0.0000   192.0000 </r>
       <r>   -18.6513     0.0000   192.0000 </r>
       <r>   -18.3642     0.0000   192.0000 </r>
       <r>   -18.0772     0.0000   192.0000 </r>
       <r>   -17.7901     0.0000   192.0000 </r>
       <r>   -17.5030     0.0000   192.0000 </r>
       <r>   -17.2160     0.0000   192.0000 </r>
       <r>   -16.9289     0.0000   192.0000 </r>
       <r>   -16.6419     0.0000   192.0000 </r>
       <r>   -16.3548     0.0000   192.0000 </r>
       <r>   -16.0678     0.0000   192.0000 </r>
       <r>   -15.7807     0.0000   192.0000 </r>
       <r>   -15.4937     0.0000   192.0000 </r>
       <r>   -15.2066     0.0000   192.0000 </r>
       <r>   -14.9195     0.0000   192.0000 </r>
       <r>   -14.6325     0.0000   192.0000 </r>
       <r>   -14.3454     0.0000   192.0000 </r>
       <r>   -14.0584     0.0000   192.0000 </r>
       <r>   -13.7713     0.0000   192.0000 </r>
       <r>   -13.4843     0.0000   192.0000 </r>
       <r>   -13.1972     0.0000   192.0000 </r>
       <r>   -12.9102     0.0000   192.0000 </r>
       <r>   -12.6231     0.0000   192.0000 </r>
       <r>   -12.3361     0.0000   192.0000 </r>
       <r>   -12.0490     0.0000   192.0000 </r>
       <r>   -11.7619     0.0000   192.0000 </r>
       <r>   -11.4749     0.0000   192.0000 </r>
       <r>   -11.1878     0.0000   192.0000 </r>
       <r>   -10.9008     0.0000   192.0000 </r>
       <r>   -10.6137     0.0000   192.0000 </r>
       <r>   -10.3267     0.0000   192.0000 </r>
       <r>   -10.0396     0.0000   192.0000 </r>
       <r>    -9.7526     0.0000   192.0000 </r>
       <r>    -9.4655     0.0000   192.0000 </r>
       <r>    -9.1784     0.0000   192.0000 </r>
       <r>    -8.8914     0.0000   192.0000 </r>
       <r>    -8.6043     0.0000   192.0000 </r>
       <r>    -8.3173     0.0000   192.0000 </r>
       <r>    -8.0302     0.0000   192.0000 </r>
       <r>    -7.7432     0.0000   192.0000 </r>
       <r>    -7.4561     0.0000   192.0000 </r>
       <r>    -7.1691     0.0000   192.0000 </r>
       <r>    -6.8820     0.0000   192.0000 </r>
       <r>    -6.5949     0.0000   192.0000 </r>
       <r>    -6.3079     0.0000   192.0000 </r>
       <r>    -6.0208     0.0000   192.0000 </r>
       <r>    -5.7338     0.0000   192.0000 </r>
       <r>    -5.4467     0.0000   192.0000 </r>
       <r>    -5.1597     0.0000   192.0000 </r>
       <r>    -4.8726     0.0000   192.0000 </r>
       <r>    -4.5856     0.0000   192.0000 </r>
       <r>    -4.2985     0.0000   192.0000 </r>
       <r>    -4.0115     0.0000   192.0000 </r>
       <r>    -3.7244     0.0000   192.0000 </r>
       <r>    -3.4373     0.0000   192.0000 </r>
       <r>    -3.1503     0.0000   192.0000 </r>
       <r>    -2.8632    -0.0000   192.0000 </r>
       <r>    -2.5762    -0.0000   192.0000 </r>
       <r>    -2.2891    -0.0000   192.0000 </r>
       <r>    -2.0021    -0.0000   192.0000 </r>
       <r>    -1.7150    -0.0000   192.0000 </r>
       <r>    -1.4280    -0.0006   191.9998 </r>
       <r>    -1.1409    -0.0010   191.9995 </r>
       <r>    -0.8538     0.1526   192.0433 </r>
       <r>    -0.5668     1.5237   192.4807 </r>
       <r>    -0.2797     0.8347   192.7203 </r>
       <r>     0.0073     2.7865   193.5202 </r>
       <r>     0.2944     2.4294   194.2176 </r>
       <r>     0.5814     0.8598   194.4644 </r>
       <r>     0.8685     5.3932   196.0126 </r>
       <r>     1.1555     2.8380   196.8272 </r>
       <r>     1.4426     4.4980   198.1184 </r>
       <r>     1.7296     0.8889   198.3736 </r>
       <r>     2.0167     8.0420   200.6821 </r>
       <r>     2.3038     5.0646   202.1359 </r>
       <r>     2.5908     6.5072   204.0038 </r>
       <r>     2.8779     2.9399   204.8478 </r>
       <r>     3.1649     9.7580   207.6488 </r>
       <r>     3.4520    14.0159   211.6722 </r>
       <r>     3.7390    12.5676   215.2798 </r>
       <r>     4.0261    23.2980   221.9676 </r>
       <r>     4.3131    39.1849   233.2158 </r>
       <r>     4.6002    25.0872   240.4172 </r>
       <r>     4.8873    52.7495   255.5592 </r>
       <r>     5.1743    53.0172   270.7781 </r>
       <r>     5.4614    47.3043   284.3570 </r>
       <r>     5.7484    49.7962   298.6513 </r>
       <r>     6.0355    62.2379   316.5170 </r>
       <r>     6.3225    71.9798   337.1792 </r>
       <r>     6.6096    83.4778   361.1419 </r>
       <r>     6.8966    87.8882   386.3706 </r>
       <r>     7.1837    63.8830   404.7086 </r>
       <r>     7.4707    64.5321   423.2329 </r>
       <r>     7.7578    81.6273   446.6644 </r>
       <r>     8.0449    65.2156   465.3849 </r>
       <r>     8.3319    76.3448   487.3000 </r>
       <r>     8.6190   104.7031   517.3556 </r>
       <r>     8.9060    43.8149   529.9329 </r>
       <r>     9.1931    20.1360   535.7130 </r>
       <r>     9.4801     9.5141   538.4441 </r>
       <r>     9.7672     3.4033   539.4210 </r>
       <r>    10.0542    13.1266   543.1891 </r>
       <r>    10.3413    11.6439   546.5315 </r>
       <r>    10.6284    12.6448   550.1613 </r>
       <r>    10.9154     4.3713   551.4161 </r>
       <r>    11.2025     8.3567   553.8149 </r>
       <r>    11.4895     8.6206   556.2895 </r>
       <r>    11.7766     7.2514   558.3710 </r>
       <r>    12.0636    12.4554   561.9464 </r>
       <r>    12.3507     2.5779   562.6864 </r>
       <r>    12.6377     9.5169   565.4183 </r>
       <r>    12.9248     8.3038   567.8019 </r>
       <r>    13.2119    -0.1976   567.7452 </r>
       <r>    13.4989     1.8654   568.2807 </r>
       <r>    13.7860    11.7105   571.6423 </r>
       <r>    14.0730     2.8776   572.4683 </r>
       <r>    14.3601     2.1280   573.0792 </r>
       <r>    14.6471     6.3942   574.9147 </r>
       <r>    14.9342     7.4505   577.0534 </r>
       <r>    15.2212     7.5950   579.2335 </r>
       <r>    15.5083    10.7568   582.3213 </r>
       <r>    15.7953     7.4407   584.4572 </r>
       <r>    16.0824     7.0730   586.4876 </r>
       <r>    16.3695    11.7405   589.8577 </r>
       <r>    16.6565     7.4089   591.9845 </r>
       <r>    16.9436    11.0735   595.1632 </r>
       <r>    17.2306     8.0691   597.4795 </r>
       <r>    17.5177     6.4900   599.3425 </r>
       <r>    17.8047     5.9048   601.0375 </r>
       <r>    18.0918     6.0952   602.7872 </r>
       <r>    18.3788    10.1017   605.6869 </r>
       <r>    18.6659     4.7160   607.0406 </r>
       <r>    18.9530    13.2209   610.8358 </r>
       <r>    19.2400     6.1369   612.5974 </r>
       <r>    19.5271    13.1042   616.3590 </r>
       <r>    19.8141    18.1271   621.5625 </r>
       <r>    20.1012     9.9899   624.4302 </r>
       <r>    20.3882     9.6725   627.2067 </r>
       <r>    20.6753    13.3936   631.0514 </r>
       <r>    20.9623    12.5299   634.6482 </r>
       <r>    21.2494     1.9974   635.2215 </r>
       <r>    21.5364    12.5391   638.8209 </r>
       <r>    21.8235    12.2584   642.3398 </r>
       <r>    22.1106    10.1601   645.2563 </r>
       <r>    22.3976     0.6083   645.4309 </r>
       <r>    22.6847     2.0189   646.0104 </r>
       <r>    22.9717    -0.0315   646.0014 </r>
       <r>    23.2588    -0.0049   646.0000 </r>
       <r>    23.5458    -0.0000   646.0000 </r>
       <r>    23.8329    -0.0000   646.0000 </r>
       <r>    24.1199     0.0000   646.0000 </r>
       <r>    24.4070     0.0000   646.0000 </r>
       <r>    24.6941     0.0000   646.0000 </r>
       <r>    24.9811     0.0000   646.0000 </r>
       <r>    25.2682     0.0000   646.0000 </r>
       <r>    25.5552     0.0000   646.0000 </r>
       <r>    25.8423     0.0000   646.0000 </r>
       <r>    26.1293     0.0000   646.0000 </r>
       <r>    26.4164     0.0000   646.0000 </r>
      </set>
     </set>
    </array>
   </total>
  </dos>
 </calculation>
 <structure name="finalpos" >
  <crystal>
   <varray name="basis" >
    <v>       0.00000000       6.94425000       6.94425000 </v>
    <v>       6.94425000       0.00000000       6.94425000 </v>
    <v>       6.94425000       6.94425000       0.00000000 </v>
   </varray>
   <i name="volume">    669.73969208 </i>
   <varray name="rec_basis" >
    <v>      -0.07200202       0.07200202       0.07200202 </v>
    <v>       0.07200202      -0.07200202       0.07200202 </v>
    <v>       0.07200202       0.07200202      -0.07200202 </v>
   </varray>
  </crystal>
  <varray name="positions" >
   <v>       0.00216006      -0.00216006      -0.00216006 </v>
   <v>       0.00000000       0.00000000       0.25000000 </v>
   <v>       0.00000000       0.00000000       0.50000000 </v>
   <v>       0.00000000       0.00000000       0.75000000 </v>
   <v>       0.00000000       0.25000000       0.00000000 </v>
   <v>       0.00000000       0.25000000       0.25000000 </v>
   <v>       0.00000000       0.25000000       0.50000000 </v>
   <v>       0.00000000       0.25000000       0.75000000 </v>
   <v>       0.00000000       0.50000000       0.00000000 </v>
   <v>       0.00000000       0.50000000       0.25000000 </v>
   <v>       0.00000000       0.50000000       0.50000000 </v>
   <v>       0.00000000       0.50000000       0.75000000 </v>
   <v>       0.00000000       0.75000000       0.00000000 </v>
   <v>       0.00000000       0.75000000       0.25000000 </v>
   <v>       0.00000000       0.75000000       0.50000000 </v>
   <v>       0.00000000       0.75000000       0.75000000 </v>
   <v>       0.25000000       0.00000000       0.00000000 </v>
   <v>       0.25000000       0.00000000       0.25000000 </v>
   <v>       0.25000000       0.00000000       0.50000000 </v>
   <v>       0.25000000       0.00000000       0.75000000 </v>
   <v>       0.25000000       0.25000000       0.00000000 </v>
   <v>       0.25000000       0.25000000       0.25000000 </v>
   <v>       0.25000000       0.25000000       0.50000000 </v>
   <v>       0.25000000       0.25000000       0.75000000 </v>
   <v>       0.25000000       0.50000000       0.00000000 </v>
   <v>       0.25000000       0.50000000       0.25000000 </v>
   <v>       0.25000000       0.50000000       0.50000000 </v>
   <v>       0.25000000       0.50000000       0.75000000 </v>
   <v>       0.25000000       0.75000000       0.00000000 </v>
   <v>       0.25000000       0.75000000       0.25000000 </v>
   <v>       0.25000000       0.75000000       0.50000000 </v>
   <v>       0.25000000       0.75000000       0.75000000 </v>
   <v>       0.50000000       0.00000000       0.00000000 </v>
   <v>       0.50000000       0.00000000       0.25000000 </v>
   <v>       0.50000000       0.00000000       0.50000000 </v>
   <v>       0.50000000       0.00000000       0.75000000 </v>
   <v>       0.50000000       0.25000000       0.00000000 </v>
   <v>       0.50000000       0.25000000       0.25000000 </v>
   <v>       0.50000000       0.25000000       0.50000000 </v>
   <v>       0.50000000       0.25000000       0.75000000 </v>
   <v>       0.50000000       0.50000000       0.00000000 </v>
   <v>       0.50000000       0.50000000       0.25000000 </v>
   <v>       0.50000000       0.50000000       0.50000000 </v>
   <v>       0.50000000       0.50000000       0.75000000 </v>
   <v>       0.50000000       0.75000000       0.00000000 </v>
   <v>       0.50000000       0.75000000       0.25000000 </v>
   <v>       0.50000000       0.75000000       0.50000000 </v>
   <v>       0.50000000       0.75000000       0.75000000 </v>
   <v>       0.75000000       0.00000000       0.00000000 </v>
   <v>       0.75000000       0.00000000       0.25000000 </v>
   <v>       0.75000000       0.00000000       0.50000000 </v>
   <v>       0.75000000       0.00000000       0.75000000 </v>
   <v>       0.75000000       0.25000000       0.00000000 </v>
   <v>       0.75000000       0.25000000       0.25000000 </v>
   <v>       0.75000000       0.25000000       0.50000000 </v>
   <v>       0.75000000       0.25000000       0.75000000 </v>
   <v>       0.75000000       0.50000000       0.00000000 </v>
   <v>       0.75000000       0.50000000       0.25000000 </v>
   <v>       0.75000000       0.50000000       0.50000000 </v>
   <v>       0.75000000       0.50000000       0.75000000 </v>
   <v>       0.75000000       0.75000000       0.00000000 </v>
   <v>       0.75000000       0.75000000       0.25000000 </v>
   <v>       0.75000000       0.75000000       0.50000000 </v>
   <v>       0.75000000       0.75000000       0.75000000 </v>
  </varray>
 </structure>
</modeling>
