       N       E                     dE             d eps       ncg     rms          rms(c)
DAV:   1     0.154241637151E+05    0.15424E+05   -0.61249E+05 11728   0.214E+03
DAV:   2     0.100158165156E+04   -0.14423E+05   -0.14026E+05 10368   0.695E+02
DAV:   3    -0.345608224710E+03   -0.13472E+04   -0.11242E+04 10560   0.230E+02
DAV:   4    -0.424039219608E+03   -0.78431E+02   -0.75811E+02 11096   0.556E+01
DAV:   5    -0.425395084250E+03   -0.13559E+01   -0.13538E+01 11048   0.723E+00    0.677E+01
DAV:   6    -0.402552477074E+03    0.22843E+02   -0.67096E+02 10880   0.761E+01    0.581E+01
DAV:   7    -0.363654719576E+03    0.38898E+02   -0.15219E+02 10784   0.364E+01    0.618E+00
DAV:   8    -0.363832666048E+03   -0.17795E+00   -0.16499E+00 10944   0.268E+00    0.328E+00
DAV:   9    -0.363697514675E+03    0.13515E+00   -0.32431E-01 11280   0.104E+00    0.813E-01
DAV:  10    -0.363704433944E+03   -0.69193E-02   -0.16867E-02 11760   0.254E-01    0.366E-01
DAV:  11    -0.363708766704E+03   -0.43328E-02   -0.94096E-03 10984   0.219E-01    0.137E-01
DAV:  12    -0.363708782550E+03   -0.15846E-04   -0.10097E-03 11304   0.746E-02    0.232E-02
DAV:  13    -0.363708786317E+03   -0.37668E-05   -0.55196E-05 11352   0.171E-02    0.210E-02
DAV:  14    -0.363708765926E+03    0.20391E-04   -0.75726E-06  8440   0.698E-03    0.928E-03
DAV:  15    -0.363708758905E+03    0.70212E-05   -0.25392E-06  6816   0.453E-03    0.872E-04
DAV:  16    -0.363708759334E+03   -0.42966E-06   -0.19536E-07  5472   0.107E-03
   1 F= -.36370876E+03 E0= -.36369216E+03  d E =-.497981E-01  mag=    45.7807
 Found     1 degrees of freedom:
       N       E                     dE             d eps       ncg     rms          rms(c)
DAV:   1    -0.363611904508E+03    0.96854E-01   -0.22902E+00 20648   0.156E+01    0.566E-01
DAV:   2    -0.363708151837E+03   -0.96247E-01   -0.94688E-01 16056   0.154E+00    0.115E+00
DAV:   3    -0.363712078696E+03   -0.39269E-02   -0.41183E-02 20072   0.941E-01    0.137E+00
DAV:   4    -0.363710067059E+03    0.20116E-02   -0.73128E-03 18216   0.612E-01    0.892E-01
DAV:   5    -0.363708353199E+03    0.17139E-02   -0.14190E-03 17120   0.359E-01    0.194E-01
DAV:   6    -0.363708342938E+03    0.10261E-04   -0.33524E-04 20648   0.875E-02    0.173E-01
DAV:   7    -0.363708284767E+03    0.58172E-04   -0.68231E-05 17472   0.601E-02    0.147E-01
DAV:   8    -0.363708264311E+03    0.20455E-04   -0.53108E-05 17440   0.647E-02    0.149E-01
DAV:   9    -0.363708255330E+03    0.89816E-05   -0.12332E-04 17400   0.110E-01    0.208E-01
DAV:  10    -0.363708133205E+03    0.12212E-03   -0.12036E-04 20568   0.977E-02    0.456E-02
DAV:  11    -0.363708138109E+03   -0.49041E-05   -0.38533E-05 22816   0.373E-02    0.603E-02
DAV:  12    -0.363708132177E+03    0.59322E-05   -0.15487E-05 17592   0.315E-02    0.377E-02
DAV:  13    -0.363708129732E+03    0.24454E-05   -0.55511E-06 16096   0.169E-02    0.114E-02
DAV:  14    -0.363708130194E+03   -0.46246E-06   -0.12154E-06  8712   0.870E-03
   2 F= -.36370813E+03 E0= -.36369153E+03  d E =-.497952E-01  mag=    45.7808
       N       E                     dE             d eps       ncg     rms          rms(c)
DAV:   1    -0.363357609665E+03    0.35052E+00   -0.80955E+00 20664   0.276E+01    0.110E+00
DAV:   2    -0.363725842676E+03   -0.36823E+00   -0.34433E+00 16048   0.285E+00    0.351E+00
DAV:   3    -0.363713938469E+03    0.11904E-01   -0.18309E-01 19472   0.169E+00    0.163E+00
DAV:   4    -0.363722189783E+03   -0.82513E-02   -0.25365E-02 19328   0.128E+00    0.245E+00
DAV:   5    -0.363709093928E+03    0.13096E-01   -0.96257E-03 16888   0.941E-01    0.493E-01
DAV:   6    -0.363708827125E+03    0.26680E-03   -0.15561E-03 20096   0.222E-01    0.311E-01
DAV:   7    -0.363708704491E+03    0.12263E-03   -0.39140E-04 17552   0.133E-01    0.306E-01
DAV:   8    -0.363708523906E+03    0.18058E-03   -0.23984E-04 17376   0.132E-01    0.253E-01
DAV:   9    -0.363708624868E+03   -0.10096E-03   -0.37879E-04 17312   0.184E-01    0.391E-01
DAV:  10    -0.363708202009E+03    0.42286E-03   -0.47578E-04 20072   0.198E-01    0.194E-01
DAV:  11    -0.363708139331E+03    0.62678E-04   -0.18825E-04 20896   0.866E-02    0.747E-02
DAV:  12    -0.363708156162E+03   -0.16831E-04   -0.61015E-05 21400   0.625E-02    0.106E-01
DAV:  13    -0.363708129925E+03    0.26237E-04   -0.38239E-05 17808   0.542E-02    0.261E-02
DAV:  14    -0.363708137647E+03   -0.77218E-05   -0.12568E-05 19304   0.288E-02    0.613E-02
DAV:  15    -0.363708130068E+03    0.75788E-05   -0.77957E-06 16328   0.263E-02    0.141E-02
DAV:  16    -0.363708130122E+03   -0.53900E-07   -0.15654E-06  8632   0.994E-03
   3 F= -.36370813E+03 E0= -.36369153E+03  d E =-.497931E-01  mag=    45.7808
