 vasp.5.4.1 05Feb16 (build Oct 12 2016 17:31:35) complex                        
  
 executed on           IFC91_ompi date 2020.09.07  23:18:49
 running on    4 total cores
 distrk:  each k-point on    4 cores,    1 groups
 distr:  one band on NCORES_PER_BAND=   1 cores,    4 groups


--------------------------------------------------------------------------------------------------------


 INCAR:
 POTCAR:   PAW_PBE Ni_pv 06Sep2000                
 POTCAR:   PAW_PBE Ni_pv 06Sep2000                
  local pseudopotential read in
  partial core-charges read in
  atomic valenz-charges read in
  non local Contribution for L=           1  read in
    real space projection operators read in
  non local Contribution for L=           1  read in
    real space projection operators read in
  non local Contribution for L=           2  read in
    real space projection operators read in
  non local Contribution for L=           2  read in
    real space projection operators read in
  non local Contribution for L=           0  read in
    real space projection operators read in
  non local Contribution for L=           0  read in
    real space projection operators read in
    PAW grid and wavefunctions read in
 
   number of l-projection  operators is LMAX  =           6
   number of lm-projection operators is LMMAX =          18
 
 Optimization of the real space projectors (new method)

 maximal supplied QI-value         = 18.90
 optimisation between [QCUT,QGAM] = [ 10.96, 27.40] = [ 33.64,210.25] Ry 
 Optimized for a Real-space Cutoff    1.19 Angstroem

   l    n(q)    QCUT    max X(q) W(low)/X(q) W(high)/X(q)  e(spline) 
   1      9    10.960     3.231    0.64E-06    0.38E-05    0.29E-07
   1      9    10.960     4.241    0.27E-04    0.99E-05    0.15E-06
   2      9    10.960     3.566    0.37E-04    0.13E-04    0.55E-07
   2      9    10.960    20.429    0.20E-03    0.15E-04    0.28E-06
   0     10    10.960    19.799    0.13E-04    0.31E-05    0.11E-07
   0     10    10.960    52.283    0.57E-04    0.26E-04    0.65E-07
 PAW_PBE Ni_pv 06Sep2000                :
 energy of atom  1       EATOM=-3500.3496
 kinetic energy error for atom=    0.0894 (will be added to EATOM!!)
 
 
 POSCAR: Supercell by Yi Wang                    
  positions in direct lattice
  No initial velocities read in
 exchange correlation table for  LEXCH =        8
   RHO(1)=    0.500       N(1)  =     2000
   RHO(2)=  100.500       N(2)  =     4000
 


--------------------------------------------------------------------------------------------------------


 ion  position               nearest neighbor table
   1  0.000  0.000  0.000-
   2  0.000  0.000  0.250-
   3  0.000  0.000  0.500-
   4  0.000  0.000  0.750-
   5  0.000  0.250  0.000-
   6  0.000  0.250  0.250-
   7  0.000  0.250  0.500-
   8  0.000  0.250  0.750-
   9  0.000  0.500  0.000-
  10  0.000  0.500  0.250-
  11  0.000  0.500  0.500-
  12  0.000  0.500  0.750-
  13  0.000  0.750  0.000-
  14  0.000  0.750  0.250-
  15  0.000  0.750  0.500-
  16  0.000  0.750  0.750-
  17  0.250  0.000  0.000-
  18  0.250  0.000  0.250-
  19  0.250  0.000  0.500-
  20  0.250  0.000  0.750-
  21  0.250  0.250  0.000-
  22  0.250  0.250  0.250-
  23  0.250  0.250  0.500-
  24  0.250  0.250  0.750-
  25  0.250  0.500  0.000-
  26  0.250  0.500  0.250-
  27  0.250  0.500  0.500-
  28  0.250  0.500  0.750-
  29  0.250  0.750  0.000-
  30  0.250  0.750  0.250-
  31  0.250  0.750  0.500-
  32  0.250  0.750  0.750-
  33  0.500  0.000  0.000-
  34  0.500  0.000  0.250-
  35  0.500  0.000  0.500-
  36  0.500  0.000  0.750-
  37  0.500  0.250  0.000-
  38  0.500  0.250  0.250-
  39  0.500  0.250  0.500-
  40  0.500  0.250  0.750-
  41  0.500  0.500  0.000-
  42  0.500  0.500  0.250-
  43  0.500  0.500  0.500-
  44  0.500  0.500  0.750-
  45  0.500  0.750  0.000-
  46  0.500  0.750  0.250-
  47  0.500  0.750  0.500-
  48  0.500  0.750  0.750-
  49  0.750  0.000  0.000-
  50  0.750  0.000  0.250-
  51  0.750  0.000  0.500-
  52  0.750  0.000  0.750-
  53  0.750  0.250  0.000-
  54  0.750  0.250  0.250-
  55  0.750  0.250  0.500-
  56  0.750  0.250  0.750-
  57  0.750  0.500  0.000-
  58  0.750  0.500  0.250-
  59  0.750  0.500  0.500-
  60  0.750  0.500  0.750-
  61  0.750  0.750  0.000-
  62  0.750  0.750  0.250-
  63  0.750  0.750  0.500-
  64  0.750  0.750  0.750-
 
  LATTYP: Found a face centered cubic cell.
 ALAT       =    14.7345000000
  
  Lattice vectors:
  
 A1 = (   0.0000000000,   7.3672500000,   7.3672500000)
 A2 = (   7.3672500000,   0.0000000000,   7.3672500000)
 A3 = (   7.3672500000,   7.3672500000,   0.0000000000)


Analysis of symmetry for initial positions (statically):
=====================================================================
 Subroutine PRICEL returns following result:
 
  LATTYP: Found a face centered cubic cell.
 ALAT       =     3.6836250000
  
  Lattice vectors:
  
 A1 = (   0.0000000000,   1.8418125000,   1.8418125000)
 A2 = (   1.8418125000,   0.0000000000,   1.8418125000)
 A3 = (   1.8418125000,   1.8418125000,   0.0000000000)
 
  64 primitive cells build up your supercell.
 

 Routine SETGRP: Setting up the symmetry group for a 
 face centered cubic supercell.


 Subroutine GETGRP returns: Found 48 space group operations
 (whereof 48 operations were pure point group operations)
 out of a pool of 48 trial point group operations.


The static configuration has the point symmetry O_h .


Analysis of symmetry for dynamics (positions and initial velocities):
=====================================================================
 Subroutine PRICEL returns following result:
 
  LATTYP: Found a face centered cubic cell.
 ALAT       =     3.6836250000
  
  Lattice vectors:
  
 A1 = (   0.0000000000,   1.8418125000,   1.8418125000)
 A2 = (   1.8418125000,   0.0000000000,   1.8418125000)
 A3 = (   1.8418125000,   1.8418125000,   0.0000000000)
 
  64 primitive cells build up your supercell.
 

 Routine SETGRP: Setting up the symmetry group for a 
 face centered cubic supercell.


 Subroutine GETGRP returns: Found 48 space group operations
 (whereof 48 operations were pure point group operations)
 out of a pool of 48 trial point group operations.


The dynamic configuration has the point symmetry O_h .


Analysis of structural, dynamic, and magnetic symmetry:
=====================================================================
 Subroutine PRICEL returns following result:
 
  LATTYP: Found a face centered cubic cell.
 ALAT       =     3.6836250000
  
  Lattice vectors:
  
 A1 = (   0.0000000000,   1.8418125000,   1.8418125000)
 A2 = (   1.8418125000,   0.0000000000,   1.8418125000)
 A3 = (   1.8418125000,   1.8418125000,   0.0000000000)
 
  64 primitive cells build up your supercell.
 

 Routine SETGRP: Setting up the symmetry group for a 
 face centered cubic supercell.


 Subroutine GETGRP returns: Found 48 space group operations
 (whereof 48 operations were pure point group operations)
 out of a pool of 48 trial point group operations.


The magnetic configuration has the point symmetry O_h .


 Subroutine INISYM returns: Found 48 space group operations
 (whereof 48 operations are pure point group operations),
 and found    64 'primitive' translations

 
 
 KPOINTS: Zr 15x15x15                             

Automatic generation of k-mesh.
Space group operators:
 irot       det(A)        alpha          n_x          n_y          n_z        tau_x        tau_y        tau_z
    1     1.000000     0.000000     1.000000     0.000000     0.000000     0.000000     0.000000     0.000000
    2    -1.000000     0.000000     1.000000     0.000000     0.000000     0.000000     0.000000     0.000000
    3     1.000000   120.000000    -0.577350    -0.577350    -0.577350     0.000000     0.000000     0.000000
    4    -1.000000   120.000000    -0.577350    -0.577350    -0.577350     0.000000     0.000000     0.000000
    5     1.000000   120.000000     0.577350     0.577350     0.577350     0.000000     0.000000     0.000000
    6    -1.000000   120.000000     0.577350     0.577350     0.577350     0.000000     0.000000     0.000000
    7     1.000000    90.000000     0.000000     0.000000    -1.000000     0.000000     0.000000     0.000000
    8    -1.000000    90.000000     0.000000     0.000000    -1.000000     0.000000     0.000000     0.000000
    9     1.000000   180.000000     0.000000     0.707107     0.707107     0.000000     0.000000     0.000000
   10    -1.000000   180.000000     0.000000     0.707107     0.707107     0.000000     0.000000     0.000000
   11     1.000000    90.000000     0.000000     1.000000     0.000000     0.000000     0.000000     0.000000
   12    -1.000000    90.000000     0.000000     1.000000     0.000000     0.000000     0.000000     0.000000
   13     1.000000   179.999999     0.000000     0.000000     1.000000     0.000000     0.000000     0.000000
   14    -1.000000   179.999999     0.000000     0.000000     1.000000     0.000000     0.000000     0.000000
   15     1.000000   120.000000    -0.577350     0.577350     0.577350     0.000000     0.000000     0.000000
   16    -1.000000   120.000000    -0.577350     0.577350     0.577350     0.000000     0.000000     0.000000
   17     1.000000   120.000000    -0.577350     0.577350    -0.577350     0.000000     0.000000     0.000000
   18    -1.000000   120.000000    -0.577350     0.577350    -0.577350     0.000000     0.000000     0.000000
   19     1.000000    90.000000     0.000000     0.000000     1.000000     0.000000     0.000000     0.000000
   20    -1.000000    90.000000     0.000000     0.000000     1.000000     0.000000     0.000000     0.000000
   21     1.000000    90.000000    -1.000000     0.000000     0.000000     0.000000     0.000000     0.000000
   22    -1.000000    90.000000    -1.000000     0.000000     0.000000     0.000000     0.000000     0.000000
   23     1.000000   180.000000     0.707107     0.000000     0.707107     0.000000     0.000000     0.000000
   24    -1.000000   180.000000     0.707107     0.000000     0.707107     0.000000     0.000000     0.000000
   25     1.000000   120.000000     0.577350    -0.577350     0.577350     0.000000     0.000000     0.000000
   26    -1.000000   120.000000     0.577350    -0.577350     0.577350     0.000000     0.000000     0.000000
   27     1.000000   120.000000    -0.577350    -0.577350     0.577350     0.000000     0.000000     0.000000
   28    -1.000000   120.000000    -0.577350    -0.577350     0.577350     0.000000     0.000000     0.000000
   29     1.000000   180.000000     1.000000     0.000000     0.000000     0.000000     0.000000     0.000000
   30    -1.000000   180.000000     1.000000     0.000000     0.000000     0.000000     0.000000     0.000000
   31     1.000000    90.000000     0.000000    -1.000000     0.000000     0.000000     0.000000     0.000000
   32    -1.000000    90.000000     0.000000    -1.000000     0.000000     0.000000     0.000000     0.000000
   33     1.000000   180.000000     0.707107     0.707107     0.000000     0.000000     0.000000     0.000000
   34    -1.000000   180.000000     0.707107     0.707107     0.000000     0.000000     0.000000     0.000000
   35     1.000000    90.000000     1.000000     0.000000     0.000000     0.000000     0.000000     0.000000
   36    -1.000000    90.000000     1.000000     0.000000     0.000000     0.000000     0.000000     0.000000
   37     1.000000   120.000000     0.577350    -0.577350    -0.577350     0.000000     0.000000     0.000000
   38    -1.000000   120.000000     0.577350    -0.577350    -0.577350     0.000000     0.000000     0.000000
   39     1.000000   180.000000     0.000000     1.000000     0.000000     0.000000     0.000000     0.000000
   40    -1.000000   180.000000     0.000000     1.000000     0.000000     0.000000     0.000000     0.000000
   41     1.000000   120.000000     0.577350     0.577350    -0.577350     0.000000     0.000000     0.000000
   42    -1.000000   120.000000     0.577350     0.577350    -0.577350     0.000000     0.000000     0.000000
   43     1.000000   180.000000     0.000000    -0.707107     0.707107     0.000000     0.000000     0.000000
   44    -1.000000   180.000000     0.000000    -0.707107     0.707107     0.000000     0.000000     0.000000
   45     1.000000   180.000000     0.707107    -0.707107     0.000000     0.000000     0.000000     0.000000
   46    -1.000000   180.000000     0.707107    -0.707107     0.000000     0.000000     0.000000     0.000000
   47     1.000000   180.000000     0.707107     0.000000    -0.707107     0.000000     0.000000     0.000000
   48    -1.000000   180.000000     0.707107     0.000000    -0.707107     0.000000     0.000000     0.000000
 
 Subroutine IBZKPT returns following result:
 ===========================================
 
 Found      4 irreducible k-points:
 
 Following reciprocal coordinates:
            Coordinates               Weight
  0.000000  0.000000  0.000000      1.000000
  0.333333  0.000000  0.000000      8.000000
  0.333333  0.333333  0.000000      6.000000
 -0.333333  0.333333  0.000000     12.000000
 
 Following cartesian coordinates:
            Coordinates               Weight
  0.000000  0.000000  0.000000      1.000000
 -0.022623  0.022623  0.022623      8.000000
  0.000000  0.000000  0.045245      6.000000
  0.045245 -0.045245  0.000000     12.000000
 
 
 Subroutine IBZKPT_HF returns following result:
 ==============================================
 
 Found     27 k-points in 1st BZ
 the following     27 k-points will be used (e.g. in the exchange kernel)
 Following reciprocal coordinates:   # in IRBZ
  0.000000  0.000000  0.000000    0.03703704   1 t-inv F
  0.333333  0.000000  0.000000    0.03703704   2 t-inv F
  0.333333  0.333333  0.000000    0.03703704   3 t-inv F
 -0.333333  0.333333  0.000000    0.03703704   4 t-inv F
 -0.333333  0.000000  0.000000    0.03703704   2 t-inv F
  0.000000  0.333333  0.000000    0.03703704   2 t-inv F
  0.000000 -0.333333  0.000000    0.03703704   2 t-inv F
  0.000000  0.000000  0.333333    0.03703704   2 t-inv F
  0.000000  0.000000 -0.333333    0.03703704   2 t-inv F
  0.333333  0.333333  0.333333    0.03703704   2 t-inv F
 -0.333333 -0.333333 -0.333333    0.03703704   2 t-inv F
 -0.333333 -0.333333  0.000000    0.03703704   3 t-inv F
  0.000000  0.333333  0.333333    0.03703704   3 t-inv F
  0.000000 -0.333333 -0.333333    0.03703704   3 t-inv F
  0.333333  0.000000  0.333333    0.03703704   3 t-inv F
 -0.333333  0.000000 -0.333333    0.03703704   3 t-inv F
  0.333333 -0.333333  0.000000    0.03703704   4 t-inv F
  0.000000 -0.333333  0.333333    0.03703704   4 t-inv F
  0.000000  0.333333 -0.333333    0.03703704   4 t-inv F
  0.333333  0.000000 -0.333333    0.03703704   4 t-inv F
 -0.333333  0.000000  0.333333    0.03703704   4 t-inv F
  0.333333  0.333333  0.666667    0.03703704   4 t-inv F
 -0.333333 -0.333333 -0.666667    0.03703704   4 t-inv F
 -0.333333 -0.666667 -0.333333    0.03703704   4 t-inv F
  0.333333  0.666667  0.333333    0.03703704   4 t-inv F
 -0.666667 -0.333333 -0.333333    0.03703704   4 t-inv F
  0.666667  0.333333  0.333333    0.03703704   4 t-inv F


--------------------------------------------------------------------------------------------------------




 Dimension of arrays:
   k-points           NKPTS =      4   k-points in BZ     NKDIM =      4   number of bands    NBANDS=    648
   number of dos      NEDOS =    301   number of ions     NIONS =     64
   non local maximal  LDIM  =      6   non local SUM 2l+1 LMDIM =     18
   total plane-waves  NPLWV = 512000
   max r-space proj   IRMAX =   4614   max aug-charges    IRDMAX=   6162
   dimension x,y,z NGX =    80 NGY =   80 NGZ =   80
   dimension x,y,z NGXF=   120 NGYF=  120 NGZF=  120
   support grid    NGXF=   120 NGYF=  120 NGZF=  120
   ions per type =              64
 NGX,Y,Z   is equivalent  to a cutoff of  12.76, 12.76, 12.76 a.u.
 NGXF,Y,Z  is equivalent  to a cutoff of  19.15, 19.15, 19.15 a.u.


 I would recommend the setting:
   dimension x,y,z NGX =    73 NGY =   73 NGZ =   73
 SYSTEM =  phonon of Zr bcc - omiga                
 POSCAR =  Supercell by Yi Wang                    

 Startparameter for this run:
   NWRITE =      0    write-flag & timer
   PREC   = h         normal or accurate (medium, high low for compatibility)
   ISTART =      0    job   : 0-new  1-cont  2-samecut
   ICHARG =      2    charge: 1-file 2-atom 10-const
   ISPIN  =      2    spin polarized calculation?
   LNONCOLLINEAR =      F non collinear calculations
   LSORBIT =      F    spin-orbit coupling
   INIWAV =      1    electr: 0-lowe 1-rand  2-diag
   LASPH  =      F    aspherical Exc in radial PAW
   METAGGA=      F    non-selfconsistent MetaGGA calc.

 Electronic Relaxation 1
   ENCUT  =  459.9 eV  33.80 Ry    5.81 a.u.  18.22 18.22 18.22*2*pi/ulx,y,z
   ENINI  =  459.9     initial cutoff
   ENAUG  =  703.4 eV  augmentation charge cutoff
   NELM   =     60;   NELMIN=  2; NELMDL=  0     # of ELM steps 
   EDIFF  = 0.1E-05   stopping-criterion for ELM
   LREAL  =      T    real-space projection
   NLSPLINE    = F    spline interpolate recip. space projectors
   LCOMPAT=      F    compatible to vasp.4.4
   GGA_COMPAT  = T    GGA compatible to vasp.4.4-vasp.4.6
   LMAXPAW     = -100 max onsite density
   LMAXMIX     =    2 max onsite mixed and CHGCAR
   VOSKOWN=      0    Vosko Wilk Nusair interpolation
   ROPT   =   -0.00040
 Ionic relaxation
   EDIFFG = 0.1E-04   stopping-criterion for IOM
   NSW    =    805    number of steps for IOM
   NBLOCK =      1;   KBLOCK =      1    inner block; outer block 
   IBRION =      6    ionic relax: 0-MD 1-quasi-New 2-CG
   NFREE  =      2    steps in history (QN), initial steepest desc. (CG)
   ISIF   =      2    stress and relaxation
   IWAVPR =     11    prediction:  0-non 1-charg 2-wave 3-comb
   ISYM   =      2    0-nonsym 1-usesym 2-fastsym
   LCORR  =      T    Harris-Foulkes like correction to forces

   POTIM  = 0.5000    time-step for ionic-motion
   TEIN   =    0.0    initial temperature
   TEBEG  =    0.0;   TEEND  =   0.0 temperature during run
   SMASS  =  -3.00    Nose mass-parameter (am)
   estimated Nose-frequenzy (Omega)   =  0.10E-29 period in steps =****** mass=  -0.248E-26a.u.
   SCALEE = 1.0000    scale energy and forces
   NPACO  =    256;   APACO  = 16.0  distance and # of slots for P.C.
   PSTRESS=    0.0 pullay stress

  Mass of Ions in am
   POMASS =  58.69
  Ionic Valenz
   ZVAL   =  16.00
  Atomic Wigner-Seitz radii
   RWIGS  =  -1.00
  virtual crystal weights 
   VCA    =   1.00
   NELECT =    1024.0000    total number of electrons
   NUPDOWN=      -1.0000    fix difference up-down

 DOS related values:
   EMIN   =  10.00;   EMAX   =-10.00  energy-range for DOS
   EFERMI =   0.00
   ISMEAR =     1;   SIGMA  =   0.20  broadening in eV -4-tet -1-fermi 0-gaus

 Electronic relaxation 2 (details)
   IALGO  =     38    algorithm
   LDIAG  =      T    sub-space diagonalisation (order eigenvalues)
   LSUBROT=      F    optimize rotation matrix (better conditioning)
   TURBO    =      0    0=normal 1=particle mesh
   IRESTART =      0    0=no restart 2=restart with 2 vectors
   NREBOOT  =      0    no. of reboots
   NMIN     =      0    reboot dimension
   EREF     =   0.00    reference energy to select bands
   IMIX   =      4    mixing-type and parameters
     AMIX     =   0.40;   BMIX     =  1.00
     AMIX_MAG =   1.60;   BMIX_MAG =  1.00
     AMIN     =   0.10
     WC   =   100.;   INIMIX=   1;  MIXPRE=   1;  MAXMIX= -45

 Intra band minimization:
   WEIMIN = 0.0010     energy-eigenvalue tresh-hold
   EBREAK =  0.39E-09  absolut break condition
   DEPER  =   0.30     relativ break condition  

   TIME   =   0.40     timestep for ELM

  volume/ion in A,a.u.               =      12.50        84.33
  Fermi-wavevector in a.u.,A,eV,Ry     =   1.777704  3.359373 42.997552  3.160231
  Thomas-Fermi vector in A             =   2.843044
 
 Write flags
   LWAVE  =      T    write WAVECAR
   LCHARG =      T    write CHGCAR
   LVTOT  =      F    write LOCPOT, total local potential
   LVHAR  =      F    write LOCPOT, Hartree potential only
   LELF   =      F    write electronic localiz. function (ELF)
   LORBIT =      0    0 simple, 1 ext, 2 COOP (PROOUT)


 Dipole corrections
   LMONO  =      F    monopole corrections only (constant potential shift)
   LDIPOL =      F    correct potential (dipole corrections)
   IDIPOL =      0    1-x, 2-y, 3-z, 4-all directions 
   EPSILON=  1.0000000 bulk dielectric constant

 Exchange correlation treatment:
   GGA     =    --    GGA type
   LEXCH   =     8    internal setting for exchange type
   VOSKOWN=      0    Vosko Wilk Nusair interpolation
   LHFCALC =     F    Hartree Fock is set to
   LHFONE  =     F    Hartree Fock one center treatment
   AEXX    =    0.0000 exact exchange contribution

 Linear response parameters
   LEPSILON=     F    determine dielectric tensor
   LRPA    =     F    only Hartree local field effects (RPA)
   LNABLA  =     F    use nabla operator in PAW spheres
   LVEL    =     F    velocity operator in full k-point grid
   LINTERFAST=   F  fast interpolation
   KINTER  =     0    interpolate to denser k-point grid
   CSHIFT  =0.1000    complex shift for real part using Kramers Kronig
   OMEGAMAX=  -1.0    maximum frequency
   DEG_THRESHOLD= 0.2000000E-02 threshold for treating states as degnerate
   RTIME   =    0.100 relaxation time in fs

 Orbital magnetization related:
   ORBITALMAG=     F  switch on orbital magnetization
   LCHIMAG   =     F  perturbation theory with respect to B field
   DQ        =  0.001000  dq finite difference perturbation B field



--------------------------------------------------------------------------------------------------------


 finite differences with symmetry
 charge density and potential will be updated during run
 spin polarized calculation
 Variant of blocked Davidson
 Davidson routine will perform the subspace rotation
 perform sub-space diagonalisation
    after iterative eigenvector-optimisation
 modified Broyden-mixing scheme, WC =      100.0
 initial mixing is a Kerker type mixing with AMIX =  0.4000 and BMIX =      1.0000
 Hartree-type preconditioning will be used
 using additional bands          136
 real space projection scheme for non local part
 use partial core corrections
 calculate Harris-corrections to forces 
   (improved forces if not selfconsistent)
 use gradient corrections 
 use of overlap-Matrix (Vanderbilt PP)
 Methfessel and Paxton  Order N= 1 SIGMA  =   0.20


--------------------------------------------------------------------------------------------------------


  energy-cutoff  :      459.93
  volume of cell :      799.74
      direct lattice vectors                 reciprocal lattice vectors
     0.000000000  7.367250000  7.367250000    -0.067867929  0.067867929  0.067867929
     7.367250000  0.000000000  7.367250000     0.067867929 -0.067867929  0.067867929
     7.367250000  7.367250000  0.000000000     0.067867929  0.067867929 -0.067867929

  length of vectors
    10.418864867 10.418864867 10.418864867     0.117550701  0.117550701  0.117550701


 
 k-points in units of 2pi/SCALE and weight: Zr 15x15x15                             
   0.00000000  0.00000000  0.00000000       0.037
  -0.02262264  0.02262264  0.02262264       0.296
   0.00000000  0.00000000  0.04524529       0.222
   0.04524529 -0.04524529  0.00000000       0.444
 
 k-points in reciprocal lattice and weights: Zr 15x15x15                             
   0.00000000  0.00000000  0.00000000       0.037
   0.33333333  0.00000000  0.00000000       0.296
   0.33333333  0.33333333  0.00000000       0.222
  -0.33333333  0.33333333  0.00000000       0.444
 
 position of ions in fractional coordinates (direct lattice) 
   0.00000000  0.00000000  0.00000000
   0.00000000  0.00000000  0.25000000
   0.00000000  0.00000000  0.50000000
   0.00000000  0.00000000  0.75000000
   0.00000000  0.25000000  0.00000000
   0.00000000  0.25000000  0.25000000
   0.00000000  0.25000000  0.50000000
   0.00000000  0.25000000  0.75000000
   0.00000000  0.50000000  0.00000000
   0.00000000  0.50000000  0.25000000
   0.00000000  0.50000000  0.50000000
   0.00000000  0.50000000  0.75000000
   0.00000000  0.75000000  0.00000000
   0.00000000  0.75000000  0.25000000
   0.00000000  0.75000000  0.50000000
   0.00000000  0.75000000  0.75000000
   0.25000000  0.00000000  0.00000000
   0.25000000  0.00000000  0.25000000
   0.25000000  0.00000000  0.50000000
   0.25000000  0.00000000  0.75000000
   0.25000000  0.25000000  0.00000000
   0.25000000  0.25000000  0.25000000
   0.25000000  0.25000000  0.50000000
   0.25000000  0.25000000  0.75000000
   0.25000000  0.50000000  0.00000000
   0.25000000  0.50000000  0.25000000
   0.25000000  0.50000000  0.50000000
   0.25000000  0.50000000  0.75000000
   0.25000000  0.75000000  0.00000000
   0.25000000  0.75000000  0.25000000
   0.25000000  0.75000000  0.50000000
   0.25000000  0.75000000  0.75000000
   0.50000000  0.00000000  0.00000000
   0.50000000  0.00000000  0.25000000
   0.50000000  0.00000000  0.50000000
   0.50000000  0.00000000  0.75000000
   0.50000000  0.25000000  0.00000000
   0.50000000  0.25000000  0.25000000
   0.50000000  0.25000000  0.50000000
   0.50000000  0.25000000  0.75000000
   0.50000000  0.50000000  0.00000000
   0.50000000  0.50000000  0.25000000
   0.50000000  0.50000000  0.50000000
   0.50000000  0.50000000  0.75000000
   0.50000000  0.75000000  0.00000000
   0.50000000  0.75000000  0.25000000
   0.50000000  0.75000000  0.50000000
   0.50000000  0.75000000  0.75000000
   0.75000000  0.00000000  0.00000000
   0.75000000  0.00000000  0.25000000
   0.75000000  0.00000000  0.50000000
   0.75000000  0.00000000  0.75000000
   0.75000000  0.25000000  0.00000000
   0.75000000  0.25000000  0.25000000
   0.75000000  0.25000000  0.50000000
   0.75000000  0.25000000  0.75000000
   0.75000000  0.50000000  0.00000000
   0.75000000  0.50000000  0.25000000
   0.75000000  0.50000000  0.50000000
   0.75000000  0.50000000  0.75000000
   0.75000000  0.75000000  0.00000000
   0.75000000  0.75000000  0.25000000
   0.75000000  0.75000000  0.50000000
   0.75000000  0.75000000  0.75000000
 
 position of ions in cartesian coordinates  (Angst):
   0.00000000  0.00000000  0.00000000
   1.84181250  1.84181250  0.00000000
   3.68362500  3.68362500  0.00000000
   5.52543750  5.52543750  0.00000000
   1.84181250  0.00000000  1.84181250
   3.68362500  1.84181250  1.84181250
   5.52543750  3.68362500  1.84181250
   7.36725000  5.52543750  1.84181250
   3.68362500  0.00000000  3.68362500
   5.52543750  1.84181250  3.68362500
   7.36725000  3.68362500  3.68362500
   9.20906250  5.52543750  3.68362500
   5.52543750  0.00000000  5.52543750
   7.36725000  1.84181250  5.52543750
   9.20906250  3.68362500  5.52543750
  11.05087500  5.52543750  5.52543750
   0.00000000  1.84181250  1.84181250
   1.84181250  3.68362500  1.84181250
   3.68362500  5.52543750  1.84181250
   5.52543750  7.36725000  1.84181250
   1.84181250  1.84181250  3.68362500
   3.68362500  3.68362500  3.68362500
   5.52543750  5.52543750  3.68362500
   7.36725000  7.36725000  3.68362500
   3.68362500  1.84181250  5.52543750
   5.52543750  3.68362500  5.52543750
   7.36725000  5.52543750  5.52543750
   9.20906250  7.36725000  5.52543750
   5.52543750  1.84181250  7.36725000
   7.36725000  3.68362500  7.36725000
   9.20906250  5.52543750  7.36725000
  11.05087500  7.36725000  7.36725000
   0.00000000  3.68362500  3.68362500
   1.84181250  5.52543750  3.68362500
   3.68362500  7.36725000  3.68362500
   5.52543750  9.20906250  3.68362500
   1.84181250  3.68362500  5.52543750
   3.68362500  5.52543750  5.52543750
   5.52543750  7.36725000  5.52543750
   7.36725000  9.20906250  5.52543750
   3.68362500  3.68362500  7.36725000
   5.52543750  5.52543750  7.36725000
   7.36725000  7.36725000  7.36725000
   9.20906250  9.20906250  7.36725000
   5.52543750  3.68362500  9.20906250
   7.36725000  5.52543750  9.20906250
   9.20906250  7.36725000  9.20906250
  11.05087500  9.20906250  9.20906250
   0.00000000  5.52543750  5.52543750
   1.84181250  7.36725000  5.52543750
   3.68362500  9.20906250  5.52543750
   5.52543750 11.05087500  5.52543750
   1.84181250  5.52543750  7.36725000
   3.68362500  7.36725000  7.36725000
   5.52543750  9.20906250  7.36725000
   7.36725000 11.05087500  7.36725000
   3.68362500  5.52543750  9.20906250
   5.52543750  7.36725000  9.20906250
   7.36725000  9.20906250  9.20906250
   9.20906250 11.05087500  9.20906250
   5.52543750  5.52543750 11.05087500
   7.36725000  7.36725000 11.05087500
   9.20906250  9.20906250 11.05087500
  11.05087500 11.05087500 11.05087500
 


--------------------------------------------------------------------------------------------------------


 k-point  1 :   0.0000 0.0000 0.0000  plane waves:   17933
 k-point  2 :   0.3333 0.0000 0.0000  plane waves:   17868
 k-point  3 :   0.3333 0.3333 0.0000  plane waves:   17914
 k-point  4 :  -0.3333 0.3333 0.0000  plane waves:   17934

 maximum and minimum number of plane-waves per node :     17934    17868

 maximum number of plane-waves:     17934
 maximum index in each direction: 
   IXMAX=   18   IYMAX=   18   IZMAX=   18
   IXMIN=  -18   IYMIN=  -18   IZMIN=  -18

 NGX is ok and might be reduce to  74
 NGY is ok and might be reduce to  74
 NGZ is ok and might be reduce to  74

 serial   3D FFT for wavefunctions
 parallel 3D FFT for charge:
    minimum data exchange during FFTs selected (reduces bandwidth)


 total amount of memory used by VASP on root node   567940. kBytes
========================================================================

   base      :      30000. kBytes
   nonlr-proj:      49751. kBytes
   fftplans  :      17719. kBytes
   grid      :      72672. kBytes
   one-center:       1990. kBytes
   wavefun   :     395808. kBytes
 
     INWAV:  cpu time    0.0000: real time    0.0000
 Broyden mixing: mesh for mixing (old mesh)
   NGX = 37   NGY = 37   NGZ = 37
  (NGX  =120   NGY  =120   NGZ  =120)
  gives a total of  50653 points

 initial charge density was supplied:
 charge density of overlapping atoms calculated
 number of electron    1024.0000000 magnetization      64.0000000
 keeping initial charge density in first step


--------------------------------------------------------------------------------------------------------


 Maximum index for non-local projection operator         4417
 Maximum index for augmentation-charges         1448 (set IRDMAX)


--------------------------------------------------------------------------------------------------------


 First call to EWALD:  gamma=   0.191
 Maximum number of real-space cells 3x 3x 3
 Maximum number of reciprocal cells 3x 3x 3

 FEWALD executed in parallel
    FEWALD:  cpu time    0.0060: real time    0.0069


----------------------------------------- Iteration    1(   1)  ---------------------------------------


    POTLOK:  cpu time    0.5129: real time    0.5136
    SETDIJ:  cpu time    0.0890: real time    0.0882
     EDDAV:  cpu time  203.1941: real time  203.0344
       DOS:  cpu time    0.0040: real time    0.0036
    --------------------------------------------
      LOOP:  cpu time  203.8010: real time  203.6430

 eigenvalue-minimisations  : 11728
 total energy-change (2. order) : 0.1542416E+05  (-0.6124893E+05)
 number of electron    1024.0000000 magnetization      64.0000000
 augmentation part     1024.0000000 magnetization      64.0000000

 Free energy of the ion-electron system (eV)
  ---------------------------------------------------
  alpha Z        PSCENC =      8628.10280496
  Ewald energy   TEWEN  =   -146823.96742904
  -Hartree energ DENC   =    -65868.69495315
  -exchange      EXHF   =         0.00000000
  -V(xc)+E(xc)   XCENC  =      5689.76584338
  PAW double counting   =    172361.15642774  -181272.45834873
  entropy T*S    EENTRO =         0.00543700
  eigenvalues    EBANDS =     -1306.39823349
  atomic energy  EATOM  =    224016.65216645
  Solvation  Ediel_sol  =         0.00000000
  ---------------------------------------------------
  free energy    TOTEN  =     15424.16371511 eV

  energy without entropy =    15424.15827811  energy(sigma->0) =    15424.16190278


--------------------------------------------------------------------------------------------------------




----------------------------------------- Iteration    1(   2)  ---------------------------------------


     EDDAV:  cpu time  184.5339: real time  184.3828
       DOS:  cpu time    0.0050: real time    0.0049
    --------------------------------------------
      LOOP:  cpu time  184.5389: real time  184.3883

 eigenvalue-minimisations  : 10368
 total energy-change (2. order) :-0.1442258E+05  (-0.1402611E+05)
 number of electron    1024.0000000 magnetization      64.0000000
 augmentation part     1024.0000000 magnetization      64.0000000

 Free energy of the ion-electron system (eV)
  ---------------------------------------------------
  alpha Z        PSCENC =      8628.10280496
  Ewald energy   TEWEN  =   -146823.96742904
  -Hartree energ DENC   =    -65868.69495315
  -exchange      EXHF   =         0.00000000
  -V(xc)+E(xc)   XCENC  =      5689.76584338
  PAW double counting   =    172361.15642774  -181272.45834873
  entropy T*S    EENTRO =         0.00074691
  eigenvalues    EBANDS =    -15728.97560696
  atomic energy  EATOM  =    224016.65216645
  Solvation  Ediel_sol  =         0.00000000
  ---------------------------------------------------
  free energy    TOTEN  =      1001.58165156 eV

  energy without entropy =     1001.58090465  energy(sigma->0) =     1001.58140259


--------------------------------------------------------------------------------------------------------




----------------------------------------- Iteration    1(   3)  ---------------------------------------


     EDDAV:  cpu time  187.1635: real time  187.0142
       DOS:  cpu time    0.0040: real time    0.0045
    --------------------------------------------
      LOOP:  cpu time  187.1685: real time  188.7820

 eigenvalue-minimisations  : 10560
 total energy-change (2. order) :-0.1347190E+04  (-0.1124168E+04)
 number of electron    1024.0000000 magnetization      64.0000000
 augmentation part     1024.0000000 magnetization      64.0000000

 Free energy of the ion-electron system (eV)
  ---------------------------------------------------
  alpha Z        PSCENC =      8628.10280496
  Ewald energy   TEWEN  =   -146823.96742904
  -Hartree energ DENC   =    -65868.69495315
  -exchange      EXHF   =         0.00000000
  -V(xc)+E(xc)   XCENC  =      5689.76584338
  PAW double counting   =    172361.15642774  -181272.45834873
  entropy T*S    EENTRO =         0.18422920
  eigenvalues    EBANDS =    -17076.34896551
  atomic energy  EATOM  =    224016.65216645
  Solvation  Ediel_sol  =         0.00000000
  ---------------------------------------------------
  free energy    TOTEN  =      -345.60822471 eV

  energy without entropy =     -345.79245391  energy(sigma->0) =     -345.66963444


--------------------------------------------------------------------------------------------------------




----------------------------------------- Iteration    1(   4)  ---------------------------------------


     EDDAV:  cpu time  194.7754: real time  194.6533
       DOS:  cpu time    0.0050: real time    0.0051
    --------------------------------------------
      LOOP:  cpu time  194.7814: real time  194.6590

 eigenvalue-minimisations  : 11096
 total energy-change (2. order) :-0.7843099E+02  (-0.7581056E+02)
 number of electron    1024.0000000 magnetization      64.0000000
 augmentation part     1024.0000000 magnetization      64.0000000

 Free energy of the ion-electron system (eV)
  ---------------------------------------------------
  alpha Z        PSCENC =      8628.10280496
  Ewald energy   TEWEN  =   -146823.96742904
  -Hartree energ DENC   =    -65868.69495315
  -exchange      EXHF   =         0.00000000
  -V(xc)+E(xc)   XCENC  =      5689.76584338
  PAW double counting   =    172361.15642774  -181272.45834873
  entropy T*S    EENTRO =         0.17999501
  eigenvalues    EBANDS =    -17154.77572622
  atomic energy  EATOM  =    224016.65216645
  Solvation  Ediel_sol  =         0.00000000
  ---------------------------------------------------
  free energy    TOTEN  =      -424.03921961 eV

  energy without entropy =     -424.21921462  energy(sigma->0) =     -424.09921794


--------------------------------------------------------------------------------------------------------




----------------------------------------- Iteration    1(   5)  ---------------------------------------


     EDDAV:  cpu time  193.8685: real time  193.7194
       DOS:  cpu time    0.0050: real time    0.0052
    CHARGE:  cpu time   12.3011: real time   12.2914
    MIXING:  cpu time    0.0100: real time    0.0103
    --------------------------------------------
      LOOP:  cpu time  206.1857: real time  206.0270

 eigenvalue-minimisations  : 11048
 total energy-change (2. order) :-0.1355865E+01  (-0.1353787E+01)
 number of electron    1024.0006345 magnetization      58.6539542
 augmentation part      572.9135145 magnetization      46.8528240

 Broyden mixing:
  rms(total) = 0.67746E+01    rms(broyden)= 0.67717E+01
  rms(prec ) = 0.91416E+01
  weight for this iteration     100.00

 Free energy of the ion-electron system (eV)
  ---------------------------------------------------
  alpha Z        PSCENC =      8628.10280496
  Ewald energy   TEWEN  =   -146823.96742904
  -Hartree energ DENC   =    -65868.69495315
  -exchange      EXHF   =         0.00000000
  -V(xc)+E(xc)   XCENC  =      5689.76584338
  PAW double counting   =    172361.15642774  -181272.45834873
  entropy T*S    EENTRO =         0.18005063
  eigenvalues    EBANDS =    -17156.13164649
  atomic energy  EATOM  =    224016.65216645
  Solvation  Ediel_sol  =         0.00000000
  ---------------------------------------------------
  free energy    TOTEN  =      -425.39508425 eV

  energy without entropy =     -425.57513488  energy(sigma->0) =     -425.45510113


--------------------------------------------------------------------------------------------------------




----------------------------------------- Iteration    1(   6)  ---------------------------------------


    POTLOK:  cpu time    0.5049: real time    0.5045
    SETDIJ:  cpu time    0.0880: real time    0.0882
     EDDAV:  cpu time  192.5157: real time  192.4075
       DOS:  cpu time    0.0050: real time    0.0057
    CHARGE:  cpu time   12.4831: real time   12.4722
    MIXING:  cpu time    0.0110: real time    0.0112
    --------------------------------------------
      LOOP:  cpu time  205.6077: real time  205.4899

 eigenvalue-minimisations  : 10880
 total energy-change (2. order) : 0.2284261E+02  (-0.6709558E+02)
 number of electron    1024.0007119 magnetization      52.6226177
 augmentation part      635.1227844 magnetization      46.9986173

 Broyden mixing:
  rms(total) = 0.58147E+01    rms(broyden)= 0.58141E+01
  rms(prec ) = 0.72875E+01
  weight for this iteration     100.00

 eigenvalues of (default mixing * dielectric matrix)
  average eigenvalue GAMMA=   0.5178
  0.5178

 Free energy of the ion-electron system (eV)
  ---------------------------------------------------
  alpha Z        PSCENC =      8628.10280496
  Ewald energy   TEWEN  =   -146823.96742904
  -Hartree energ DENC   =    -62516.42541306
  -exchange      EXHF   =         0.00000000
  -V(xc)+E(xc)   XCENC  =      5563.27982462
  PAW double counting   =    167091.96507470  -175675.40251684
  entropy T*S    EENTRO =        -0.49808083
  eigenvalues    EBANDS =    -20686.25890802
  atomic energy  EATOM  =    224016.65216645
  Solvation  Ediel_sol  =         0.00000000
  ---------------------------------------------------
  free energy    TOTEN  =      -402.55247707 eV

  energy without entropy =     -402.05439624  energy(sigma->0) =     -402.38645013


--------------------------------------------------------------------------------------------------------




----------------------------------------- Iteration    1(   7)  ---------------------------------------


    POTLOK:  cpu time    0.4989: real time    0.4989
    SETDIJ:  cpu time    0.0890: real time    0.0883
     EDDAV:  cpu time  191.2949: real time  191.1423
       DOS:  cpu time    0.0050: real time    0.0051
    CHARGE:  cpu time   12.8081: real time   12.7978
    MIXING:  cpu time    0.0130: real time    0.0119
    --------------------------------------------
      LOOP:  cpu time  204.7089: real time  204.5451

 eigenvalue-minimisations  : 10784
 total energy-change (2. order) : 0.3889776E+02  (-0.1521879E+02)
 number of electron    1024.0006763 magnetization      48.4089723
 augmentation part      606.8237847 magnetization      39.6304209

 Broyden mixing:
  rms(total) = 0.61837E+00    rms(broyden)= 0.61762E+00
  rms(prec ) = 0.72235E+00
  weight for this iteration     100.00

 eigenvalues of (default mixing * dielectric matrix)
  average eigenvalue GAMMA=   0.6943
  0.8362  0.5524

 Free energy of the ion-electron system (eV)
  ---------------------------------------------------
  alpha Z        PSCENC =      8628.10280496
  Ewald energy   TEWEN  =   -146823.96742904
  -Hartree energ DENC   =    -63839.47391190
  -exchange      EXHF   =         0.00000000
  -V(xc)+E(xc)   XCENC  =      5612.59115367
  PAW double counting   =    169739.83974825  -178613.89474981
  entropy T*S    EENTRO =        -0.05955049
  eigenvalues    EBANDS =    -19083.44495166
  atomic energy  EATOM  =    224016.65216645
  Solvation  Ediel_sol  =         0.00000000
  ---------------------------------------------------
  free energy    TOTEN  =      -363.65471958 eV

  energy without entropy =     -363.59516909  energy(sigma->0) =     -363.63486941


--------------------------------------------------------------------------------------------------------




----------------------------------------- Iteration    1(   8)  ---------------------------------------


    POTLOK:  cpu time    0.4999: real time    0.4998
    SETDIJ:  cpu time    0.0880: real time    0.0881
     EDDAV:  cpu time  193.6746: real time  193.5154
       DOS:  cpu time    0.0050: real time    0.0051
    CHARGE:  cpu time   12.7301: real time   12.7203
    MIXING:  cpu time    0.0130: real time    0.0130
    --------------------------------------------
      LOOP:  cpu time  207.0105: real time  206.8425

 eigenvalue-minimisations  : 10944
 total energy-change (2. order) :-0.1779465E+00  (-0.1649918E+00)
 number of electron    1024.0006758 magnetization      45.1164515
 augmentation part      606.2239437 magnetization      37.7584488

 Broyden mixing:
  rms(total) = 0.32806E+00    rms(broyden)= 0.32799E+00
  rms(prec ) = 0.43149E+00
  weight for this iteration     100.00

 eigenvalues of (default mixing * dielectric matrix)
  average eigenvalue GAMMA=   1.1097
  0.5605  0.8525  1.9160

 Free energy of the ion-electron system (eV)
  ---------------------------------------------------
  alpha Z        PSCENC =      8628.10280496
  Ewald energy   TEWEN  =   -146823.96742904
  -Hartree energ DENC   =    -63736.03412301
  -exchange      EXHF   =         0.00000000
  -V(xc)+E(xc)   XCENC  =      5609.93352169
  PAW double counting   =    170076.96849839  -179035.49819742
  entropy T*S    EENTRO =        -0.04189558
  eigenvalues    EBANDS =    -19099.94801249
  atomic energy  EATOM  =    224016.65216645
  Solvation  Ediel_sol  =         0.00000000
  ---------------------------------------------------
  free energy    TOTEN  =      -363.83266605 eV

  energy without entropy =     -363.79077047  energy(sigma->0) =     -363.81870086


--------------------------------------------------------------------------------------------------------




----------------------------------------- Iteration    1(   9)  ---------------------------------------


    POTLOK:  cpu time    0.4979: real time    0.4973
    SETDIJ:  cpu time    0.0890: real time    0.0882
     EDDAV:  cpu time  198.0189: real time  197.8616
       DOS:  cpu time    0.0050: real time    0.0050
    CHARGE:  cpu time   12.6071: real time   12.5954
    MIXING:  cpu time    0.0140: real time    0.0137
    --------------------------------------------
      LOOP:  cpu time  211.2329: real time  211.0621

 eigenvalue-minimisations  : 11280
 total energy-change (2. order) : 0.1351514E+00  (-0.3243091E-01)
 number of electron    1024.0006769 magnetization      45.2477448
 augmentation part      607.1176095 magnetization      38.9804895

 Broyden mixing:
  rms(total) = 0.81292E-01    rms(broyden)= 0.81266E-01
  rms(prec ) = 0.84090E-01
  weight for this iteration     100.00

 eigenvalues of (default mixing * dielectric matrix)
  average eigenvalue GAMMA=   1.0774
  2.2279  0.8865  0.5691  0.6261

 Free energy of the ion-electron system (eV)
  ---------------------------------------------------
  alpha Z        PSCENC =      8628.10280496
  Ewald energy   TEWEN  =   -146823.96742904
  -Hartree energ DENC   =    -63572.42427812
  -exchange      EXHF   =         0.00000000
  -V(xc)+E(xc)   XCENC  =      5604.97844328
  PAW double counting   =    170370.77734431  -179404.31120958
  entropy T*S    EENTRO =        -0.05031520
  eigenvalues    EBANDS =    -19183.45504173
  atomic energy  EATOM  =    224016.65216645
  Solvation  Ediel_sol  =         0.00000000
  ---------------------------------------------------
  free energy    TOTEN  =      -363.69751467 eV

  energy without entropy =     -363.64719947  energy(sigma->0) =     -363.68074294


--------------------------------------------------------------------------------------------------------




----------------------------------------- Iteration    1(  10)  ---------------------------------------


    POTLOK:  cpu time    0.4979: real time    0.4979
    SETDIJ:  cpu time    0.0890: real time    0.0883
     EDDAV:  cpu time  204.5049: real time  204.3609
       DOS:  cpu time    0.0050: real time    0.0050
    CHARGE:  cpu time   12.5931: real time   12.5827
    MIXING:  cpu time    0.0150: real time    0.0147
    --------------------------------------------
      LOOP:  cpu time  217.7049: real time  217.5504

 eigenvalue-minimisations  : 11760
 total energy-change (2. order) :-0.6919269E-02  (-0.1686750E-02)
 number of electron    1024.0006767 magnetization      45.7334365
 augmentation part      607.0849884 magnetization      39.3872250

 Broyden mixing:
  rms(total) = 0.36585E-01    rms(broyden)= 0.36573E-01
  rms(prec ) = 0.38435E-01
  weight for this iteration     100.00

 eigenvalues of (default mixing * dielectric matrix)
  average eigenvalue GAMMA=   1.1845
  2.3110  1.4651  0.9622  0.6192  0.5649

 Free energy of the ion-electron system (eV)
  ---------------------------------------------------
  alpha Z        PSCENC =      8628.10280496
  Ewald energy   TEWEN  =   -146823.96742904
  -Hartree energ DENC   =    -63566.00833594
  -exchange      EXHF   =         0.00000000
  -V(xc)+E(xc)   XCENC  =      5604.83054857
  PAW double counting   =    170444.59588566  -179484.00734460
  entropy T*S    EENTRO =        -0.04962056
  eigenvalues    EBANDS =    -19183.85310945
  atomic energy  EATOM  =    224016.65216645
  Solvation  Ediel_sol  =         0.00000000
  ---------------------------------------------------
  free energy    TOTEN  =      -363.70443394 eV

  energy without entropy =     -363.65481339  energy(sigma->0) =     -363.68789376


--------------------------------------------------------------------------------------------------------




----------------------------------------- Iteration    1(  11)  ---------------------------------------


    POTLOK:  cpu time    0.4999: real time    0.4993
    SETDIJ:  cpu time    0.0880: real time    0.0884
     EDDAV:  cpu time  193.6576: real time  193.5068
       DOS:  cpu time    0.0050: real time    0.0050
    CHARGE:  cpu time   12.6841: real time   12.6740
    MIXING:  cpu time    0.0160: real time    0.0161
    --------------------------------------------
      LOOP:  cpu time  206.9515: real time  206.7904

 eigenvalue-minimisations  : 10984
 total energy-change (2. order) :-0.4332760E-02  (-0.9409599E-03)
 number of electron    1024.0006766 magnetization      45.7866480
 augmentation part      606.9614427 magnetization      39.2620343

 Broyden mixing:
  rms(total) = 0.13688E-01    rms(broyden)= 0.13675E-01
  rms(prec ) = 0.17207E-01
  weight for this iteration     100.00

 eigenvalues of (default mixing * dielectric matrix)
  average eigenvalue GAMMA=   1.1788
  2.4048  1.7757  0.9518  0.7418  0.5605  0.6379

 Free energy of the ion-electron system (eV)
  ---------------------------------------------------
  alpha Z        PSCENC =      8628.10280496
  Ewald energy   TEWEN  =   -146823.96742904
  -Hartree energ DENC   =    -63570.25049974
  -exchange      EXHF   =         0.00000000
  -V(xc)+E(xc)   XCENC  =      5604.96235547
  PAW double counting   =    170544.47260200  -179585.61755858
  entropy T*S    EENTRO =        -0.04838197
  eigenvalues    EBANDS =    -19178.01482626
  atomic energy  EATOM  =    224016.65216645
  Solvation  Ediel_sol  =         0.00000000
  ---------------------------------------------------
  free energy    TOTEN  =      -363.70876670 eV

  energy without entropy =     -363.66038474  energy(sigma->0) =     -363.69263938


--------------------------------------------------------------------------------------------------------




----------------------------------------- Iteration    1(  12)  ---------------------------------------


    POTLOK:  cpu time    0.4979: real time    0.4986
    SETDIJ:  cpu time    0.0890: real time    0.0881
     EDDAV:  cpu time  198.0969: real time  197.9403
       DOS:  cpu time    0.0050: real time    0.0048
    CHARGE:  cpu time   12.6571: real time   12.6471
    MIXING:  cpu time    0.0170: real time    0.0168
    --------------------------------------------
      LOOP:  cpu time  211.3639: real time  211.1966

 eigenvalue-minimisations  : 11304
 total energy-change (2. order) :-0.1584645E-04  (-0.1009685E-03)
 number of electron    1024.0006767 magnetization      45.7871964
 augmentation part      607.0206242 magnetization      39.2492309

 Broyden mixing:
  rms(total) = 0.23185E-02    rms(broyden)= 0.23077E-02
  rms(prec ) = 0.24504E-02
  weight for this iteration     100.00

 eigenvalues of (default mixing * dielectric matrix)
  average eigenvalue GAMMA=   1.1756
  2.4438  1.8684  1.0258  0.9611  0.5615  0.6280  0.7406

 Free energy of the ion-electron system (eV)
  ---------------------------------------------------
  alpha Z        PSCENC =      8628.10280496
  Ewald energy   TEWEN  =   -146823.96742904
  -Hartree energ DENC   =    -63567.06438868
  -exchange      EXHF   =         0.00000000
  -V(xc)+E(xc)   XCENC  =      5604.84033504
  PAW double counting   =    170563.11807170  -179603.83615445
  entropy T*S    EENTRO =        -0.04978938
  eigenvalues    EBANDS =    -19181.50439914
  atomic energy  EATOM  =    224016.65216645
  Solvation  Ediel_sol  =         0.00000000
  ---------------------------------------------------
  free energy    TOTEN  =      -363.70878255 eV

  energy without entropy =     -363.65899317  energy(sigma->0) =     -363.69218609


--------------------------------------------------------------------------------------------------------




----------------------------------------- Iteration    1(  13)  ---------------------------------------


    POTLOK:  cpu time    0.4989: real time    0.4991
    SETDIJ:  cpu time    0.0890: real time    0.0883
     EDDAV:  cpu time  198.6988: real time  198.5434
       DOS:  cpu time    0.0040: real time    0.0049
    CHARGE:  cpu time   12.6691: real time   12.6576
    MIXING:  cpu time    0.0180: real time    0.0182
    --------------------------------------------
      LOOP:  cpu time  211.9778: real time  211.8122

 eigenvalue-minimisations  : 11352
 total energy-change (2. order) :-0.3766821E-05  (-0.5519558E-05)
 number of electron    1024.0006767 magnetization      45.7825213
 augmentation part      607.0335747 magnetization      39.2463163

 Broyden mixing:
  rms(total) = 0.20988E-02    rms(broyden)= 0.20985E-02
  rms(prec ) = 0.27294E-02
  weight for this iteration     100.00

 eigenvalues of (default mixing * dielectric matrix)
  average eigenvalue GAMMA=   1.2269
  2.4289  1.9767  1.6857  0.9827  0.5623  0.6228  0.7780  0.7780

 Free energy of the ion-electron system (eV)
  ---------------------------------------------------
  alpha Z        PSCENC =      8628.10280496
  Ewald energy   TEWEN  =   -146823.96742904
  -Hartree energ DENC   =    -63566.81269030
  -exchange      EXHF   =         0.00000000
  -V(xc)+E(xc)   XCENC  =      5604.83223696
  PAW double counting   =    170571.57216978  -179611.82068101
  entropy T*S    EENTRO =        -0.04995097
  eigenvalues    EBANDS =    -19182.21741314
  atomic energy  EATOM  =    224016.65216645
  Solvation  Ediel_sol  =         0.00000000
  ---------------------------------------------------
  free energy    TOTEN  =      -363.70878632 eV

  energy without entropy =     -363.65883535  energy(sigma->0) =     -363.69213599


--------------------------------------------------------------------------------------------------------




----------------------------------------- Iteration    1(  14)  ---------------------------------------


    POTLOK:  cpu time    0.4989: real time    0.4995
    SETDIJ:  cpu time    0.0890: real time    0.0882
     EDDAV:  cpu time  159.1488: real time  159.0262
       DOS:  cpu time    0.0050: real time    0.0049
    CHARGE:  cpu time   12.6811: real time   12.6714
    MIXING:  cpu time    0.0200: real time    0.0194
    --------------------------------------------
      LOOP:  cpu time  172.4448: real time  172.3104

 eigenvalue-minimisations  :  8440
 total energy-change (2. order) : 0.2039096E-04  (-0.7572622E-06)
 number of electron    1024.0006767 magnetization      45.7814786
 augmentation part      607.0288729 magnetization      39.2469773

 Broyden mixing:
  rms(total) = 0.92769E-03    rms(broyden)= 0.92768E-03
  rms(prec ) = 0.11340E-02
  weight for this iteration     100.00

 eigenvalues of (default mixing * dielectric matrix)
  average eigenvalue GAMMA=   1.2553
  2.4907  2.4907  1.7900  0.9677  0.9265  0.8048  0.5619  0.6251  0.6403

 Free energy of the ion-electron system (eV)
  ---------------------------------------------------
  alpha Z        PSCENC =      8628.10280496
  Ewald energy   TEWEN  =   -146823.96742904
  -Hartree energ DENC   =    -63567.44929018
  -exchange      EXHF   =         0.00000000
  -V(xc)+E(xc)   XCENC  =      5604.85690694
  PAW double counting   =    170579.53042534  -179619.44889466
  entropy T*S    EENTRO =        -0.04985972
  eigenvalues    EBANDS =    -19181.93559601
  atomic energy  EATOM  =    224016.65216645
  Solvation  Ediel_sol  =         0.00000000
  ---------------------------------------------------
  free energy    TOTEN  =      -363.70876593 eV

  energy without entropy =     -363.65890621  energy(sigma->0) =     -363.69214602


--------------------------------------------------------------------------------------------------------




----------------------------------------- Iteration    1(  15)  ---------------------------------------


    POTLOK:  cpu time    0.4969: real time    0.4967
    SETDIJ:  cpu time    0.0880: real time    0.0882
     EDDAV:  cpu time  136.8632: real time  136.7914
       DOS:  cpu time    0.0040: real time    0.0044
    CHARGE:  cpu time   12.6381: real time   12.6287
    MIXING:  cpu time    0.0210: real time    0.0207
    --------------------------------------------
      LOOP:  cpu time  150.1122: real time  150.0308

 eigenvalue-minimisations  :  6816
 total energy-change (2. order) : 0.7021241E-05  (-0.2539175E-06)
 number of electron    1024.0006767 magnetization      45.7808967
 augmentation part      607.0253108 magnetization      39.2460989

 Broyden mixing:
  rms(total) = 0.87156E-04    rms(broyden)= 0.86666E-04
  rms(prec ) = 0.95013E-04
  weight for this iteration     100.00

 eigenvalues of (default mixing * dielectric matrix)
  average eigenvalue GAMMA=   1.2356
  2.6225  2.4413  1.8083  1.0263  1.0263  0.5619  0.7968  0.7968  0.6265  0.6491

 Free energy of the ion-electron system (eV)
  ---------------------------------------------------
  alpha Z        PSCENC =      8628.10280496
  Ewald energy   TEWEN  =   -146823.96742904
  -Hartree energ DENC   =    -63567.74515909
  -exchange      EXHF   =         0.00000000
  -V(xc)+E(xc)   XCENC  =      5604.86790726
  PAW double counting   =    170582.25565750  -179622.09045875
  entropy T*S    EENTRO =        -0.04979899
  eigenvalues    EBANDS =    -19181.73444920
  atomic energy  EATOM  =    224016.65216645
  Solvation  Ediel_sol  =         0.00000000
  ---------------------------------------------------
  free energy    TOTEN  =      -363.70875890 eV

  energy without entropy =     -363.65895992  energy(sigma->0) =     -363.69215924


--------------------------------------------------------------------------------------------------------




----------------------------------------- Iteration    1(  16)  ---------------------------------------


    POTLOK:  cpu time    0.4979: real time    0.4981
    SETDIJ:  cpu time    0.0880: real time    0.0881
     EDDAV:  cpu time  118.8199: real time  118.7228
       DOS:  cpu time    0.0050: real time    0.0051
    --------------------------------------------
      LOOP:  cpu time  119.4118: real time  119.3148

 eigenvalue-minimisations  :  5472
 total energy-change (2. order) :-0.4296598E-06  (-0.1953642E-07)
 number of electron    1024.0006767 magnetization      45.7808967
 augmentation part      607.0253108 magnetization      39.2460989

 Free energy of the ion-electron system (eV)
  ---------------------------------------------------
  alpha Z        PSCENC =      8628.10280496
  Ewald energy   TEWEN  =   -146823.96742904
  -Hartree energ DENC   =    -63567.73542326
  -exchange      EXHF   =         0.00000000
  -V(xc)+E(xc)   XCENC  =      5604.86758556
  PAW double counting   =    170582.20702861  -179622.04940457
  entropy T*S    EENTRO =        -0.04979813
  eigenvalues    EBANDS =    -19181.73628991
  atomic energy  EATOM  =    224016.65216645
  Solvation  Ediel_sol  =         0.00000000
  ---------------------------------------------------
  free energy    TOTEN  =      -363.70875933 eV

  energy without entropy =     -363.65896121  energy(sigma->0) =     -363.69215996


--------------------------------------------------------------------------------------------------------




 average (electrostatic) potential at core
  the test charge radii are     0.8614
  (the norm of the test charge is              1.0000)
       1 -80.7916       2 -80.7916       3 -80.7916       4 -80.7916       5 -80.7916
       6 -80.7916       7 -80.7916       8 -80.7916       9 -80.7916      10 -80.7916
      11 -80.7916      12 -80.7916      13 -80.7916      14 -80.7916      15 -80.7916
      16 -80.7916      17 -80.7916      18 -80.7916      19 -80.7916      20 -80.7916
      21 -80.7916      22 -80.7916      23 -80.7916      24 -80.7916      25 -80.7916
      26 -80.7916      27 -80.7916      28 -80.7916      29 -80.7916      30 -80.7916
      31 -80.7916      32 -80.7916      33 -80.7916      34 -80.7916      35 -80.7916
      36 -80.7916      37 -80.7916      38 -80.7916      39 -80.7916      40 -80.7916
      41 -80.7916      42 -80.7916      43 -80.7916      44 -80.7916      45 -80.7916
      46 -80.7916      47 -80.7916      48 -80.7916      49 -80.7916      50 -80.7916
      51 -80.7916      52 -80.7916      53 -80.7916      54 -80.7916      55 -80.7916
      56 -80.7916      57 -80.7916      58 -80.7916      59 -80.7916      60 -80.7916
      61 -80.7916      62 -80.7916      63 -80.7916      64 -80.7916
 
 
 
 E-fermi :   6.2777     XC(G=0): -12.9226     alpha+bet :-12.9573


 spin component 1

 k-point     1 :       0.0000    0.0000    0.0000
  band No.  band energies     occupation 
      1     -57.5893      1.00000
      2     -57.5892      1.00000
      3     -57.5892      1.00000
      4     -57.5892      1.00000
      5     -57.5829      1.00000
      6     -57.5829      1.00000
      7     -57.5829      1.00000
      8     -57.5680      1.00000
      9     -57.5680      1.00000
     10     -57.5680      1.00000
     11     -57.5680      1.00000
     12     -57.5680      1.00000
     13     -57.5680      1.00000
     14     -57.5679      1.00000
     15     -57.5679      1.00000
     16     -57.5679      1.00000
     17     -57.5679      1.00000
     18     -57.5679      1.00000
     19     -57.5679      1.00000
     20     -57.5679      1.00000
     21     -57.5679      1.00000
     22     -57.5679      1.00000
     23     -57.5679      1.00000
     24     -57.5679      1.00000
     25     -57.5679      1.00000
     26     -57.5679      1.00000
     27     -57.5679      1.00000
     28     -57.5679      1.00000
     29     -57.5679      1.00000
     30     -57.5679      1.00000
     31     -57.5679      1.00000
     32     -57.5530      1.00000
     33     -57.5530      1.00000
     34     -57.5530      1.00000
     35     -57.5530      1.00000
     36     -57.5530      1.00000
     37     -57.5530      1.00000
     38     -57.5529      1.00000
     39     -57.5529      1.00000
     40     -57.5529      1.00000
     41     -57.5529      1.00000
     42     -57.5529      1.00000
     43     -57.5529      1.00000
     44     -57.5464      1.00000
     45     -57.5464      1.00000
     46     -57.5464      1.00000
     47     -57.5464      1.00000
     48     -57.5464      1.00000
     49     -57.5464      1.00000
     50     -57.5464      1.00000
     51     -57.5464      1.00000
     52     -57.5464      1.00000
     53     -57.5464      1.00000
     54     -57.5464      1.00000
     55     -57.5464      1.00000
     56     -57.5253      1.00000
     57     -57.5253      1.00000
     58     -57.5253      1.00000
     59     -57.5253      1.00000
     60     -57.5253      1.00000
     61     -57.5253      1.00000
     62     -57.5253      1.00000
     63     -57.5253      1.00000
     64     -57.5227      1.00000
     65     -57.5227      1.00000
     66     -57.5227      1.00000
     67     -57.5227      1.00000
     68     -57.5227      1.00000
     69     -57.5227      1.00000
     70     -57.5157      1.00000
     71     -57.5157      1.00000
     72     -57.5157      1.00000
     73     -57.5157      1.00000
     74     -57.5157      1.00000
     75     -57.5157      1.00000
     76     -57.5157      1.00000
     77     -57.5157      1.00000
     78     -57.5157      1.00000
     79     -57.5157      1.00000
     80     -57.5157      1.00000
     81     -57.5157      1.00000
     82     -57.5131      1.00000
     83     -57.5131      1.00000
     84     -57.5131      1.00000
     85     -57.5131      1.00000
     86     -57.5131      1.00000
     87     -57.5131      1.00000
     88     -57.5131      1.00000
     89     -57.5131      1.00000
     90     -57.5131      1.00000
     91     -57.5131      1.00000
     92     -57.5131      1.00000
     93     -57.5131      1.00000
     94     -57.5131      1.00000
     95     -57.5131      1.00000
     96     -57.5131      1.00000
     97     -57.5131      1.00000
     98     -57.5131      1.00000
     99     -57.5131      1.00000
    100     -57.5131      1.00000
    101     -57.5131      1.00000
    102     -57.5131      1.00000
    103     -57.5131      1.00000
    104     -57.5131      1.00000
    105     -57.5131      1.00000
    106     -57.5102      1.00000
    107     -57.5102      1.00000
    108     -57.5102      1.00000
    109     -57.5102      1.00000
    110     -57.5102      1.00000
    111     -57.5102      1.00000
    112     -57.5100      1.00000
    113     -57.5100      1.00000
    114     -57.5100      1.00000
    115     -57.5100      1.00000
    116     -57.5100      1.00000
    117     -57.5100      1.00000
    118     -57.4948      1.00000
    119     -57.4948      1.00000
    120     -57.4948      1.00000
    121     -57.4948      1.00000
    122     -57.4948      1.00000
    123     -57.4948      1.00000
    124     -57.4948      1.00000
    125     -57.4948      1.00000
    126     -57.4948      1.00000
    127     -57.4948      1.00000
    128     -57.4948      1.00000
    129     -57.4948      1.00000
    130     -57.4948      1.00000
    131     -57.4948      1.00000
    132     -57.4948      1.00000
    133     -57.4948      1.00000
    134     -57.4948      1.00000
    135     -57.4948      1.00000
    136     -57.4948      1.00000
    137     -57.4948      1.00000
    138     -57.4948      1.00000
    139     -57.4948      1.00000
    140     -57.4948      1.00000
    141     -57.4948      1.00000
    142     -57.4853      1.00000
    143     -57.4853      1.00000
    144     -57.4853      1.00000
    145     -57.4853      1.00000
    146     -57.4853      1.00000
    147     -57.4853      1.00000
    148     -57.4852      1.00000
    149     -57.4852      1.00000
    150     -57.4852      1.00000
    151     -57.4852      1.00000
    152     -57.4852      1.00000
    153     -57.4852      1.00000
    154     -57.4797      1.00000
    155     -57.4797      1.00000
    156     -57.4797      1.00000
    157     -57.4797      1.00000
    158     -57.4797      1.00000
    159     -57.4797      1.00000
    160     -57.4797      1.00000
    161     -57.4797      1.00000
    162     -57.4797      1.00000
    163     -57.4797      1.00000
    164     -57.4797      1.00000
    165     -57.4797      1.00000
    166     -57.4797      1.00000
    167     -57.4797      1.00000
    168     -57.4797      1.00000
    169     -57.4797      1.00000
    170     -57.4797      1.00000
    171     -57.4797      1.00000
    172     -57.4797      1.00000
    173     -57.4797      1.00000
    174     -57.4703      1.00000
    175     -57.4703      1.00000
    176     -57.4703      1.00000
    177     -57.4703      1.00000
    178     -57.4703      1.00000
    179     -57.4703      1.00000
    180     -57.4702      1.00000
    181     -57.4702      1.00000
    182     -57.4702      1.00000
    183     -57.4702      1.00000
    184     -57.4702      1.00000
    185     -57.4702      1.00000
    186     -57.4702      1.00000
    187     -57.4702      1.00000
    188     -57.4702      1.00000
    189     -57.4702      1.00000
    190     -57.4607      1.00000
    191     -57.4606      1.00000
    192     -57.4606      1.00000
    193      -1.8759      1.00000
    194       0.1631      1.00000
    195       0.1631      1.00000
    196       0.1632      1.00000
    197       0.1632      1.00000
    198       0.1632      1.00000
    199       0.1632      1.00000
    200       0.1632      1.00000
    201       0.1632      1.00000
    202       0.7790      1.00000
    203       0.7790      1.00000
    204       0.7790      1.00000
    205       0.7790      1.00000
    206       0.7790      1.00000
    207       0.7790      1.00000
    208       2.0634      1.00000
    209       2.0635      1.00000
    210       2.0635      1.00000
    211       2.0635      1.00000
    212       2.2999      1.00000
    213       2.2999      1.00000
    214       2.2999      1.00000
    215       2.5365      1.00000
    216       2.5365      1.00000
    217       2.5365      1.00000
    218       2.5365      1.00000
    219       2.5365      1.00000
    220       2.5365      1.00000
    221       2.5365      1.00000
    222       2.5365      1.00000
    223       2.5365      1.00000
    224       2.5365      1.00000
    225       2.5365      1.00000
    226       2.5365      1.00000
    227       2.6622      1.00000
    228       2.6622      1.00000
    229       2.6622      1.00000
    230       2.7262      1.00000
    231       2.7262      1.00000
    232       2.7262      1.00000
    233       2.7262      1.00000
    234       2.7262      1.00000
    235       2.7262      1.00000
    236       2.7262      1.00000
    237       2.7262      1.00000
    238       2.7262      1.00000
    239       2.7262      1.00000
    240       2.7262      1.00000
    241       2.7262      1.00000
    242       2.7262      1.00000
    243       2.7262      1.00000
    244       2.7262      1.00000
    245       2.7262      1.00000
    246       2.7262      1.00000
    247       2.7262      1.00000
    248       2.7262      1.00000
    249       2.7262      1.00000
    250       2.7262      1.00000
    251       2.7262      1.00000
    252       2.7262      1.00000
    253       2.7262      1.00000
    254       3.0483      1.00000
    255       3.0483      1.00000
    256       3.0483      1.00000
    257       3.0483      1.00000
    258       3.0483      1.00000
    259       3.0483      1.00000
    260       3.2940      1.00000
    261       3.2940      1.00000
    262       3.2940      1.00000
    263       3.2940      1.00000
    264       3.2940      1.00000
    265       3.2940      1.00000
    266       3.2940      1.00000
    267       3.2940      1.00000
    268       3.2940      1.00000
    269       3.2940      1.00000
    270       3.2940      1.00000
    271       3.2940      1.00000
    272       3.2940      1.00000
    273       3.2940      1.00000
    274       3.2940      1.00000
    275       3.2940      1.00000
    276       3.2940      1.00000
    277       3.2940      1.00000
    278       3.2940      1.00000
    279       3.2940      1.00000
    280       3.2940      1.00000
    281       3.2940      1.00000
    282       3.2940      1.00000
    283       3.2940      1.00000
    284       3.3526      1.00000
    285       3.3526      1.00000
    286       3.3526      1.00000
    287       3.3526      1.00000
    288       3.3526      1.00000
    289       3.3526      1.00000
    290       3.5839      1.00000
    291       3.5839      1.00000
    292       3.5839      1.00000
    293       3.5839      1.00000
    294       3.5839      1.00000
    295       3.5839      1.00000
    296       3.5839      1.00000
    297       3.5839      1.00000
    298       3.5839      1.00000
    299       3.5839      1.00000
    300       3.5839      1.00000
    301       3.5839      1.00000
    302       3.5841      1.00000
    303       3.5841      1.00000
    304       3.5841      1.00000
    305       3.5841      1.00000
    306       3.5841      1.00000
    307       3.5841      1.00000
    308       3.5842      1.00000
    309       3.5842      1.00000
    310       3.5842      1.00000
    311       3.5842      1.00000
    312       3.5842      1.00000
    313       3.5842      1.00000
    314       3.8421      1.00000
    315       3.8421      1.00000
    316       3.8421      1.00000
    317       3.8421      1.00000
    318       3.8421      1.00000
    319       3.8421      1.00000
    320       3.8421      1.00000
    321       3.8421      1.00000
    322       3.8609      1.00000
    323       3.8609      1.00000
    324       3.8609      1.00000
    325       3.8609      1.00000
    326       3.8609      1.00000
    327       3.8609      1.00000
    328       3.8610      1.00000
    329       3.8610      1.00000
    330       3.8610      1.00000
    331       3.8610      1.00000
    332       3.8610      1.00000
    333       3.8610      1.00000
    334       4.0894      1.00000
    335       4.0895      1.00000
    336       4.0895      1.00000
    337       4.1144      1.00000
    338       4.1144      1.00000
    339       4.1144      1.00000
    340       4.1144      1.00000
    341       4.1144      1.00000
    342       4.1144      1.00000
    343       4.1145      1.00000
    344       4.1145      1.00000
    345       4.1424      1.00000
    346       4.1424      1.00000
    347       4.1424      1.00000
    348       4.1424      1.00000
    349       4.1424      1.00000
    350       4.1424      1.00000
    351       4.1424      1.00000
    352       4.1424      1.00000
    353       4.1424      1.00000
    354       4.1424      1.00000
    355       4.1424      1.00000
    356       4.1424      1.00000
    357       4.1424      1.00000
    358       4.1424      1.00000
    359       4.1424      1.00000
    360       4.1424      1.00000
    361       4.1424      1.00000
    362       4.1424      1.00000
    363       4.1424      1.00000
    364       4.1424      1.00000
    365       4.1424      1.00000
    366       4.1424      1.00000
    367       4.1424      1.00000
    368       4.1424      1.00000
    369       4.2787      1.00000
    370       4.2787      1.00000
    371       4.2787      1.00000
    372       4.2787      1.00000
    373       4.2787      1.00000
    374       4.2787      1.00000
    375       4.2787      1.00000
    376       4.2787      1.00000
    377       4.2787      1.00000
    378       4.2787      1.00000
    379       4.2787      1.00000
    380       4.2787      1.00000
    381       4.2787      1.00000
    382       4.2787      1.00000
    383       4.2787      1.00000
    384       4.2787      1.00000
    385       4.5753      1.00000
    386       4.5753      1.00000
    387       4.5753      1.00000
    388       4.5753      1.00000
    389       4.5753      1.00000
    390       4.5753      1.00000
    391       4.7097      1.00000
    392       4.7097      1.00000
    393       4.7097      1.00000
    394       4.7097      1.00000
    395       4.7097      1.00000
    396       4.7097      1.00000
    397       4.7097      1.00000
    398       4.7097      1.00000
    399       4.7097      1.00000
    400       4.7097      1.00000
    401       4.7097      1.00000
    402       4.7097      1.00000
    403       4.7721      1.00000
    404       4.7721      1.00000
    405       4.7721      1.00000
    406       4.7721      1.00000
    407       4.7721      1.00000
    408       4.7721      1.00000
    409       4.7722      1.00000
    410       4.7722      1.00000
    411       4.7722      1.00000
    412       4.7722      1.00000
    413       4.7722      1.00000
    414       4.7722      1.00000
    415       4.8139      1.00000
    416       4.8139      1.00000
    417       4.8139      1.00000
    418       4.8139      1.00000
    419       4.8139      1.00000
    420       4.8139      1.00000
    421       4.8139      1.00000
    422       4.8139      1.00000
    423       4.8139      1.00000
    424       4.8139      1.00000
    425       4.8139      1.00000
    426       4.8139      1.00000
    427       4.8139      1.00000
    428       4.8139      1.00000
    429       4.8139      1.00000
    430       4.8139      1.00000
    431       4.8139      1.00000
    432       4.8139      1.00000
    433       4.8139      1.00000
    434       4.8139      1.00000
    435       4.8139      1.00000
    436       4.8139      1.00000
    437       4.8139      1.00000
    438       4.8139      1.00000
    439       4.9377      1.00000
    440       4.9377      1.00000
    441       4.9377      1.00000
    442       4.9377      1.00000
    443       4.9377      1.00000
    444       4.9377      1.00000
    445       4.9377      1.00000
    446       4.9377      1.00000
    447       4.9377      1.00000
    448       4.9377      1.00000
    449       4.9377      1.00000
    450       4.9377      1.00000
    451       5.0056      1.00000
    452       5.0056      1.00000
    453       5.0056      1.00000
    454       5.0056      1.00000
    455       5.0056      1.00000
    456       5.0056      1.00000
    457       5.0494      1.00000
    458       5.0494      1.00000
    459       5.1047      1.00000
    460       5.1047      1.00000
    461       5.1047      1.00000
    462       5.1047      1.00000
    463       5.1047      1.00000
    464       5.1047      1.00000
    465       5.1047      1.00000
    466       5.1047      1.00000
    467       5.1047      1.00000
    468       5.1047      1.00000
    469       5.1047      1.00000
    470       5.1047      1.00000
    471       5.1047      1.00000
    472       5.1047      1.00000
    473       5.1047      1.00000
    474       5.1047      1.00000
    475       5.3332      1.00000
    476       5.3332      1.00000
    477       5.3332      1.00000
    478       5.3332      1.00000
    479       5.3332      1.00000
    480       5.3332      1.00000
    481       5.5776      1.00000
    482       5.5776      1.00000
    483       5.5776      1.00000
    484       5.5776      1.00000
    485       5.5776      1.00000
    486       5.5777      1.00000
    487       5.5777      1.00000
    488       5.5777      1.00000
    489       5.6157      1.00001
    490       5.6157      1.00001
    491       5.6157      1.00001
    492       5.6157      1.00001
    493       5.6157      1.00001
    494       5.6157      1.00001
    495       5.6157      1.00001
    496       5.6157      1.00001
    497       5.6157      1.00001
    498       5.6157      1.00001
    499       5.6157      1.00001
    500       5.6157      1.00001
    501       5.6157      1.00001
    502       5.6157      1.00001
    503       5.6157      1.00001
    504       5.6157      1.00001
    505       5.6157      1.00001
    506       5.6157      1.00001
    507       5.6158      1.00001
    508       5.6158      1.00001
    509       5.6158      1.00001
    510       5.6158      1.00001
    511       5.6158      1.00001
    512       5.6158      1.00001
    513       5.6243      1.00002
    514       5.6243      1.00002
    515       5.6243      1.00002
    516       5.6779      1.00009
    517       5.6779      1.00009
    518       5.6779      1.00009
    519       5.6779      1.00009
    520       5.6779      1.00009
    521       5.6779      1.00009
    522       5.6785      1.00010
    523       5.6785      1.00010
    524       5.6785      1.00010
    525       5.6785      1.00010
    526       5.6785      1.00010
    527       5.6785      1.00010
    528       6.1721      0.88498
    529       6.1721      0.88498
    530       6.1721      0.88498
    531       6.1722      0.88475
    532       6.9296     -0.00002
    533       6.9296     -0.00002
    534       6.9296     -0.00002
    535       6.9296     -0.00002
    536       6.9296     -0.00002
    537       6.9296     -0.00002
    538       6.9296     -0.00002
    539       6.9296     -0.00002
    540       6.9296     -0.00002
    541       6.9296     -0.00002
    542       6.9296     -0.00002
    543       6.9296     -0.00002
    544       8.1455     -0.00000
    545       8.1455     -0.00000
    546       8.1455     -0.00000
    547       8.1455     -0.00000
    548       8.1455     -0.00000
    549       8.1455     -0.00000
    550       8.1456     -0.00000
    551       8.1456     -0.00000
    552       8.1456     -0.00000
    553       8.1456     -0.00000
    554       8.1456     -0.00000
    555       8.1456     -0.00000
    556       8.1456     -0.00000
    557       8.1456     -0.00000
    558       8.1456     -0.00000
    559       8.1456     -0.00000
    560       8.1456     -0.00000
    561       8.1456     -0.00000
    562       8.1456     -0.00000
    563       8.1456     -0.00000
    564       8.1456     -0.00000
    565       8.1456     -0.00000
    566       8.1456     -0.00000
    567       8.1456     -0.00000
    568       8.5943     -0.00000
    569       8.5943     -0.00000
    570       8.5943     -0.00000
    571      10.9653     -0.00000
    572      10.9653     -0.00000
    573      10.9653     -0.00000
    574      10.9653     -0.00000
    575      13.2214      0.00000
    576      13.2214      0.00000
    577      13.2214      0.00000
    578      13.2214      0.00000
    579      13.2214      0.00000
    580      13.2214      0.00000
    581      13.2215      0.00000
    582      13.2215      0.00000
[...]
      7.367250  3.683625  3.683625    -0.074565    0.100315   -0.001403  
      9.209063  5.525438  3.683625    -0.074565    0.100315   -0.001403  
      5.525438  0.000000  5.525438    -0.074565    0.100315   -0.001403  
      7.367250  1.841813  5.525438    -0.074565    0.100315   -0.001403  
      9.209063  3.683625  5.525438    -0.074565    0.100315   -0.001403  
     11.050875  5.525438  5.525438    -0.074565    0.100315   -0.001403  
      0.000000  1.841813  1.841813    -0.074565    0.100315   -0.001403  
      1.841813  3.683625  1.841813    -0.074565    0.100315   -0.001403  
      3.683625  5.525438  1.841813    -0.074565    0.100315   -0.001403  
      5.525438  7.367250  1.841813    -0.074565    0.100315   -0.001403  
      1.841813  1.841813  3.683625    -0.074565    0.100315   -0.001403  
      3.683625  3.683625  3.683625    -0.074565    0.100315   -0.001403  
      5.525438  5.525438  3.683625    -0.074565    0.100315   -0.001403  
      7.367250  7.367250  3.683625    -0.074565    0.100315   -0.001403  
      3.683625  1.841813  5.525438    -0.074565    0.100315   -0.001403  
      5.525438  3.683625  5.525438    -0.074565    0.100315   -0.001403  
      7.367250  5.525438  5.525438    -0.074565    0.100315   -0.001403  
      9.209063  7.367250  5.525438    -0.074565    0.100315   -0.001403  
      5.525438  1.841813  7.367250    -0.074565    0.100315   -0.001403  
      7.367250  3.683625  7.367250    -0.074565    0.100315   -0.001403  
      9.209063  5.525438  7.367250    -0.074565    0.100315   -0.001403  
     11.050875  7.367250  7.367250    -0.074565    0.100315   -0.001403  
      0.000000  3.683625  3.683625    -0.074565    0.100315   -0.001403  
      1.841813  5.525438  3.683625    -0.074565    0.100315   -0.001403  
      3.683625  7.367250  3.683625    -0.074565    0.100315   -0.001403  
      5.525438  9.209063  3.683625    -0.074565    0.100315   -0.001403  
      1.841813  3.683625  5.525438    -0.074565    0.100315   -0.001403  
      3.683625  5.525438  5.525438    -0.074565    0.100315   -0.001403  
      5.525438  7.367250  5.525438    -0.074565    0.100315   -0.001403  
      7.367250  9.209063  5.525438    -0.074565    0.100315   -0.001403  
      3.683625  3.683625  7.367250    -0.074565    0.100315   -0.001403  
      5.525438  5.525438  7.367250    -0.074565    0.100315   -0.001403  
      7.367250  7.367250  7.367250    -0.074565    0.100315   -0.001403  
      9.209063  9.209063  7.367250    -0.074565    0.100315   -0.001403  
      5.525438  3.683625  9.209063    -0.074565    0.100315   -0.001403  
      7.367250  5.525438  9.209063    -0.074565    0.100315   -0.001403  
      9.209063  7.367250  9.209063    -0.074565    0.100315   -0.001403  
     11.050875  9.209063  9.209063    -0.074565    0.100315   -0.001403  
      0.000000  5.525438  5.525438    -0.074565    0.100315   -0.001403  
      1.841813  7.367250  5.525438    -0.074565    0.100315   -0.001403  
      3.683625  9.209063  5.525438    -0.074565    0.100315   -0.001403  
      5.525438 11.050875  5.525438    -0.074565    0.100315   -0.001403  
      1.841813  5.525438  7.367250    -0.074565    0.100315   -0.001403  
      3.683625  7.367250  7.367250    -0.074565    0.100315   -0.001403  
      5.525438  9.209063  7.367250    -0.074565    0.100315   -0.001403  
      7.367250 11.050875  7.367250    -0.074565    0.100315   -0.001403  
      3.683625  5.525438  9.209063    -0.074565    0.100315   -0.001403  
      5.525438  7.367250  9.209063    -0.074565    0.100315   -0.001403  
      7.367250  9.209063  9.209063    -0.074565    0.100315   -0.001403  
      9.209063 11.050875  9.209063    -0.074565    0.100315   -0.001403  
      5.525438  5.525438 11.050875    -0.074565    0.100315   -0.001403  
      7.367250  7.367250 11.050875    -0.074565    0.100315   -0.001403  
      9.209063  9.209063 11.050875    -0.074565    0.100315   -0.001403  
     11.050875 11.050875 11.050875    -0.074565    0.100315   -0.001403  
 
 192 f/i=    0.000001 THz     0.000004 2PiTHz    0.000023 cm-1     0.000003 meV
             X         Y         Z           dx          dy          dz
      0.000000  0.000000  0.000000    -0.005086   -0.002033    0.124880  
      1.841813  1.841813  0.000000    -0.005086   -0.002033    0.124880  
      3.683625  3.683625  0.000000    -0.005086   -0.002033    0.124880  
      5.525438  5.525438  0.000000    -0.005086   -0.002033    0.124880  
      1.841813  0.000000  1.841813    -0.005086   -0.002033    0.124880  
      3.683625  1.841813  1.841813    -0.005086   -0.002033    0.124880  
      5.525438  3.683625  1.841813    -0.005086   -0.002033    0.124880  
      7.367250  5.525438  1.841813    -0.005086   -0.002033    0.124880  
      3.683625  0.000000  3.683625    -0.005086   -0.002033    0.124880  
      5.525438  1.841813  3.683625    -0.005086   -0.002033    0.124880  
      7.367250  3.683625  3.683625    -0.005086   -0.002033    0.124880  
      9.209063  5.525438  3.683625    -0.005086   -0.002033    0.124880  
      5.525438  0.000000  5.525438    -0.005086   -0.002033    0.124880  
      7.367250  1.841813  5.525438    -0.005086   -0.002033    0.124880  
      9.209063  3.683625  5.525438    -0.005086   -0.002033    0.124880  
     11.050875  5.525438  5.525438    -0.005086   -0.002033    0.124880  
      0.000000  1.841813  1.841813    -0.005086   -0.002033    0.124880  
      1.841813  3.683625  1.841813    -0.005086   -0.002033    0.124880  
      3.683625  5.525438  1.841813    -0.005086   -0.002033    0.124880  
      5.525438  7.367250  1.841813    -0.005086   -0.002033    0.124880  
      1.841813  1.841813  3.683625    -0.005086   -0.002033    0.124880  
      3.683625  3.683625  3.683625    -0.005086   -0.002033    0.124880  
      5.525438  5.525438  3.683625    -0.005086   -0.002033    0.124880  
      7.367250  7.367250  3.683625    -0.005086   -0.002033    0.124880  
      3.683625  1.841813  5.525438    -0.005086   -0.002033    0.124880  
      5.525438  3.683625  5.525438    -0.005086   -0.002033    0.124880  
      7.367250  5.525438  5.525438    -0.005086   -0.002033    0.124880  
      9.209063  7.367250  5.525438    -0.005086   -0.002033    0.124880  
      5.525438  1.841813  7.367250    -0.005086   -0.002033    0.124880  
      7.367250  3.683625  7.367250    -0.005086   -0.002033    0.124880  
      9.209063  5.525438  7.367250    -0.005086   -0.002033    0.124880  
     11.050875  7.367250  7.367250    -0.005086   -0.002033    0.124880  
      0.000000  3.683625  3.683625    -0.005086   -0.002033    0.124880  
      1.841813  5.525438  3.683625    -0.005086   -0.002033    0.124880  
      3.683625  7.367250  3.683625    -0.005086   -0.002033    0.124880  
      5.525438  9.209063  3.683625    -0.005086   -0.002033    0.124880  
      1.841813  3.683625  5.525438    -0.005086   -0.002033    0.124880  
      3.683625  5.525438  5.525438    -0.005086   -0.002033    0.124880  
      5.525438  7.367250  5.525438    -0.005086   -0.002033    0.124880  
      7.367250  9.209063  5.525438    -0.005086   -0.002033    0.124880  
      3.683625  3.683625  7.367250    -0.005086   -0.002033    0.124880  
      5.525438  5.525438  7.367250    -0.005086   -0.002033    0.124880  
      7.367250  7.367250  7.367250    -0.005086   -0.002033    0.124880  
      9.209063  9.209063  7.367250    -0.005086   -0.002033    0.124880  
      5.525438  3.683625  9.209063    -0.005086   -0.002033    0.124880  
      7.367250  5.525438  9.209063    -0.005086   -0.002033    0.124880  
      9.209063  7.367250  9.209063    -0.005086   -0.002033    0.124880  
     11.050875  9.209063  9.209063    -0.005086   -0.002033    0.124880  
      0.000000  5.525438  5.525438    -0.005086   -0.002033    0.124880  
      1.841813  7.367250  5.525438    -0.005086   -0.002033    0.124880  
      3.683625  9.209063  5.525438    -0.005086   -0.002033    0.124880  
      5.525438 11.050875  5.525438    -0.005086   -0.002033    0.124880  
      1.841813  5.525438  7.367250    -0.005086   -0.002033    0.124880  
      3.683625  7.367250  7.367250    -0.005086   -0.002033    0.124880  
      5.525438  9.209063  7.367250    -0.005086   -0.002033    0.124880  
      7.367250 11.050875  7.367250    -0.005086   -0.002033    0.124880  
      3.683625  5.525438  9.209063    -0.005086   -0.002033    0.124880  
      5.525438  7.367250  9.209063    -0.005086   -0.002033    0.124880  
      7.367250  9.209063  9.209063    -0.005086   -0.002033    0.124880  
      9.209063 11.050875  9.209063    -0.005086   -0.002033    0.124880  
      5.525438  5.525438 11.050875    -0.005086   -0.002033    0.124880  
      7.367250  7.367250 11.050875    -0.005086   -0.002033    0.124880  
      9.209063  9.209063 11.050875    -0.005086   -0.002033    0.124880  
     11.050875 11.050875 11.050875    -0.005086   -0.002033    0.124880  
 

 ELASTIC MODULI CONTR FROM IONIC RELAXATION (kBar)
 Direction    XX          YY          ZZ          XY          YZ          ZX
 --------------------------------------------------------------------------------
 XX           0.0000      0.0000      0.0000      0.0000      0.0000      0.0000
 YY          -0.0000     -0.0000     -0.0000     -0.0000     -0.0000     -0.0000
 ZZ           0.0000     -0.0000     -0.0000     -0.0000      0.0000      0.0000
 XY           0.0000     -0.0000     -0.0000     -0.0000     -0.0000     -0.0000
 YZ          -0.0000     -0.0000      0.0000     -0.0000     -0.0000      0.0000
 ZX           0.0000     -0.0000      0.0000      0.0000      0.0000      0.0000
 --------------------------------------------------------------------------------



--------------------------------------------------------------------------------------------------------


  LATTYP: Found a face centered cubic cell.
 ALAT       =    14.7345000000
  
  Lattice vectors:
  
 A1 = (   0.0000000000,   7.3672500000,   7.3672500000)
 A2 = (   7.3672500000,   0.0000000000,   7.3672500000)
 A3 = (   7.3672500000,   7.3672500000,   0.0000000000)


Analysis of symmetry for initial positions (statically):
=====================================================================
 Subroutine PRICEL returns following result:
 
  LATTYP: Found a face centered cubic cell.
 ALAT       =     3.6836250000
  
  Lattice vectors:
  
 A1 = (   0.0000000000,   1.8418125000,   1.8418125000)
 A2 = (   1.8418125000,   0.0000000000,   1.8418125000)
 A3 = (   1.8418125000,   1.8418125000,   0.0000000000)
 
  64 primitive cells build up your supercell.
 

 Routine SETGRP: Setting up the symmetry group for a 
 face centered cubic supercell.


 Subroutine GETGRP returns: Found 48 space group operations
 (whereof 48 operations were pure point group operations)
 out of a pool of 48 trial point group operations.


The static configuration has the point symmetry O_h .


Analysis of symmetry for dynamics (positions and initial velocities):
=====================================================================
 Subroutine PRICEL returns following result:
 
  LATTYP: Found a face centered cubic cell.
 ALAT       =     3.6836250000
  
  Lattice vectors:
  
 A1 = (   0.0000000000,   1.8418125000,   1.8418125000)
 A2 = (   1.8418125000,   0.0000000000,   1.8418125000)
 A3 = (   1.8418125000,   1.8418125000,   0.0000000000)
 
  64 primitive cells build up your supercell.
 

 Routine SETGRP: Setting up the symmetry group for a 
 face centered cubic supercell.


 Subroutine GETGRP returns: Found 48 space group operations
 (whereof 48 operations were pure point group operations)
 out of a pool of 48 trial point group operations.


The dynamic configuration has the point symmetry O_h .


Analysis of structural, dynamic, and magnetic symmetry:
=====================================================================
 Subroutine PRICEL returns following result:
 
  LATTYP: Found a face centered cubic cell.
 ALAT       =     3.6836250000
  
  Lattice vectors:
  
 A1 = (   0.0000000000,   1.8418125000,   1.8418125000)
 A2 = (   1.8418125000,   0.0000000000,   1.8418125000)
 A3 = (   1.8418125000,   1.8418125000,   0.0000000000)
 
  64 primitive cells build up your supercell.
 

 Routine SETGRP: Setting up the symmetry group for a 
 face centered cubic supercell.


 Subroutine GETGRP returns: Found 48 space group operations
 (whereof 48 operations were pure point group operations)
 out of a pool of 48 trial point group operations.


The magnetic configuration has the point symmetry O_h .


 Subroutine INISYM returns: Found 48 space group operations
 (whereof 48 operations are pure point group operations),
 and found    64 'primitive' translations

 
 KPOINTS: Zr 15x15x15                             

Automatic generation of k-mesh.
Space group operators:
 irot       det(A)        alpha          n_x          n_y          n_z        tau_x        tau_y        tau_z
    1     1.000000     0.000000     1.000000     0.000000     0.000000     0.000000     0.000000     0.000000
    2    -1.000000     0.000000     1.000000     0.000000     0.000000     0.000000     0.000000     0.000000
    3     1.000000   120.000000    -0.577350    -0.577350    -0.577350     0.000000     0.000000     0.000000
    4    -1.000000   120.000000    -0.577350    -0.577350    -0.577350     0.000000     0.000000     0.000000
    5     1.000000   120.000000     0.577350     0.577350     0.577350     0.000000     0.000000     0.000000
    6    -1.000000   120.000000     0.577350     0.577350     0.577350     0.000000     0.000000     0.000000
    7     1.000000    90.000000     0.000000     0.000000    -1.000000     0.000000     0.000000     0.000000
    8    -1.000000    90.000000     0.000000     0.000000    -1.000000     0.000000     0.000000     0.000000
    9     1.000000   180.000000     0.000000     0.707107     0.707107     0.000000     0.000000     0.000000
   10    -1.000000   180.000000     0.000000     0.707107     0.707107     0.000000     0.000000     0.000000
   11     1.000000    90.000000     0.000000     1.000000     0.000000     0.000000     0.000000     0.000000
   12    -1.000000    90.000000     0.000000     1.000000     0.000000     0.000000     0.000000     0.000000
   13     1.000000   179.999999     0.000000     0.000000     1.000000     0.000000     0.000000     0.000000
   14    -1.000000   179.999999     0.000000     0.000000     1.000000     0.000000     0.000000     0.000000
   15     1.000000   120.000000    -0.577350     0.577350     0.577350     0.000000     0.000000     0.000000
   16    -1.000000   120.000000    -0.577350     0.577350     0.577350     0.000000     0.000000     0.000000
   17     1.000000   120.000000    -0.577350     0.577350    -0.577350     0.000000     0.000000     0.000000
   18    -1.000000   120.000000    -0.577350     0.577350    -0.577350     0.000000     0.000000     0.000000
   19     1.000000    90.000000     0.000000     0.000000     1.000000     0.000000     0.000000     0.000000
   20    -1.000000    90.000000     0.000000     0.000000     1.000000     0.000000     0.000000     0.000000
   21     1.000000    90.000000    -1.000000     0.000000     0.000000     0.000000     0.000000     0.000000
   22    -1.000000    90.000000    -1.000000     0.000000     0.000000     0.000000     0.000000     0.000000
   23     1.000000   180.000000     0.707107     0.000000     0.707107     0.000000     0.000000     0.000000
   24    -1.000000   180.000000     0.707107     0.000000     0.707107     0.000000     0.000000     0.000000
   25     1.000000   120.000000     0.577350    -0.577350     0.577350     0.000000     0.000000     0.000000
   26    -1.000000   120.000000     0.577350    -0.577350     0.577350     0.000000     0.000000     0.000000
   27     1.000000   120.000000    -0.577350    -0.577350     0.577350     0.000000     0.000000     0.000000
   28    -1.000000   120.000000    -0.577350    -0.577350     0.577350     0.000000     0.000000     0.000000
   29     1.000000   180.000000     1.000000     0.000000     0.000000     0.000000     0.000000     0.000000
   30    -1.000000   180.000000     1.000000     0.000000     0.000000     0.000000     0.000000     0.000000
   31     1.000000    90.000000     0.000000    -1.000000     0.000000     0.000000     0.000000     0.000000
   32    -1.000000    90.000000     0.000000    -1.000000     0.000000     0.000000     0.000000     0.000000
   33     1.000000   180.000000     0.707107     0.707107     0.000000     0.000000     0.000000     0.000000
   34    -1.000000   180.000000     0.707107     0.707107     0.000000     0.000000     0.000000     0.000000
   35     1.000000    90.000000     1.000000     0.000000     0.000000     0.000000     0.000000     0.000000
   36    -1.000000    90.000000     1.000000     0.000000     0.000000     0.000000     0.000000     0.000000
   37     1.000000   120.000000     0.577350    -0.577350    -0.577350     0.000000     0.000000     0.000000
   38    -1.000000   120.000000     0.577350    -0.577350    -0.577350     0.000000     0.000000     0.000000
   39     1.000000   180.000000     0.000000     1.000000     0.000000     0.000000     0.000000     0.000000
   40    -1.000000   180.000000     0.000000     1.000000     0.000000     0.000000     0.000000     0.000000
   41     1.000000   120.000000     0.577350     0.577350    -0.577350     0.000000     0.000000     0.000000
   42    -1.000000   120.000000     0.577350     0.577350    -0.577350     0.000000     0.000000     0.000000
   43     1.000000   180.000000     0.000000    -0.707107     0.707107     0.000000     0.000000     0.000000
   44    -1.000000   180.000000     0.000000    -0.707107     0.707107     0.000000     0.000000     0.000000
   45     1.000000   180.000000     0.707107    -0.707107     0.000000     0.000000     0.000000     0.000000
   46    -1.000000   180.000000     0.707107    -0.707107     0.000000     0.000000     0.000000     0.000000
   47     1.000000   180.000000     0.707107     0.000000    -0.707107     0.000000     0.000000     0.000000
   48    -1.000000   180.000000     0.707107     0.000000    -0.707107     0.000000     0.000000     0.000000
 
 Subroutine IBZKPT returns following result:
 ===========================================
 
 Found      4 irreducible k-points:
 
 Following reciprocal coordinates:
            Coordinates               Weight
  0.000000  0.000000  0.000000      1.000000
  0.333333  0.000000  0.000000      8.000000
  0.333333  0.333333  0.000000      6.000000
 -0.333333  0.333333  0.000000     12.000000
 
 Following cartesian coordinates:
            Coordinates               Weight
  0.000000  0.000000  0.000000      1.000000
 -0.022623  0.022623  0.022623      8.000000
  0.000000  0.000000  0.045245      6.000000
  0.045245 -0.045245  0.000000     12.000000
 
 writing wavefunctions
     LOOP+:  cpu time 5566.3998: real time 5568.5788
    4ORBIT:  cpu time    0.0000: real time    0.0000

 total amount of memory used by VASP on root node   567940. kBytes
========================================================================

   base      :      30000. kBytes
   nonlr-proj:      49751. kBytes
   fftplans  :      17719. kBytes
   grid      :      72672. kBytes
   one-center:       1990. kBytes
   wavefun   :     395808. kBytes
 
  
  
 General timing and accounting informations for this job:
 ========================================================
  
                  Total CPU time used (sec):    13860.454
                            User time (sec):    13777.800
                          System time (sec):       82.653
                         Elapsed time (sec):    13864.521
  
                   Maximum memory used (kb):     1420748.
                   Average memory used (kb):           0.
  
                          Minor page faults:        59858
                          Major page faults:            0
                 Voluntary context switches:         1221
