       N       E                     dE             d eps       ncg     rms          rms(c)
DAV:   1     0.138270105183E+05    0.13827E+05   -0.54685E+05 12008   0.190E+03
DAV:   2     0.779492994058E+03   -0.13048E+05   -0.12640E+05 10336   0.639E+02
DAV:   3    -0.372127039060E+03   -0.11516E+04   -0.95822E+03 10648   0.198E+02
DAV:   4    -0.430261608593E+03   -0.58135E+02   -0.56811E+02 11080   0.449E+01
DAV:   5    -0.431104814597E+03   -0.84321E+00   -0.84271E+00 10944   0.506E+00    0.681E+01
DAV:   6    -0.398537128009E+03    0.32568E+02   -0.62436E+02 10804   0.708E+01    0.508E+01
DAV:   7    -0.367597630067E+03    0.30939E+02   -0.12280E+02 10768   0.317E+01    0.579E+00
DAV:   8    -0.367697990283E+03   -0.10036E+00   -0.12051E+00 10944   0.220E+00    0.300E+00
DAV:   9    -0.367573221871E+03    0.12477E+00   -0.24442E-01 11090   0.867E-01    0.789E-01
DAV:  10    -0.367578475245E+03   -0.52534E-02   -0.12161E-02 11668   0.200E-01    0.346E-01
DAV:  11    -0.367582603205E+03   -0.41280E-02   -0.72571E-03 10916   0.182E-01    0.111E-01
DAV:  12    -0.367582594050E+03    0.91555E-05   -0.75802E-04 10932   0.636E-02    0.257E-02
DAV:  13    -0.367582599659E+03   -0.56099E-05   -0.31190E-05  9844   0.112E-02    0.209E-02
DAV:  14    -0.367582575329E+03    0.24330E-04   -0.91271E-06  9224   0.808E-03    0.643E-03
DAV:  15    -0.367582568518E+03    0.68111E-05   -0.14063E-06  5594   0.324E-03    0.145E-03
DAV:  16    -0.367582568588E+03   -0.69558E-07   -0.19349E-07  5404   0.987E-04
   1 F= -.36758257E+03 E0= -.36756914E+03  d E =-.402916E-01  mag=    44.7789
 Found     1 degrees of freedom:
       N       E                     dE             d eps       ncg     rms          rms(c)
DAV:   1    -0.367255002552E+03    0.32757E+00   -0.96493E+00 20532   0.297E+01    0.103E+00
DAV:   2    -0.367595456956E+03   -0.34045E+00   -0.32083E+00 15966   0.295E+00    0.313E+00
DAV:   3    -0.367583432466E+03    0.12024E-01   -0.14847E-01 19448   0.163E+00    0.136E+00
DAV:   4    -0.367589559019E+03   -0.61266E-02   -0.23988E-02 18856   0.113E+00    0.200E+00
DAV:   5    -0.367579888559E+03    0.96705E-02   -0.83594E-03 16800   0.830E-01    0.427E-01
DAV:   6    -0.367579700677E+03    0.18788E-03   -0.12606E-03 19272   0.195E-01    0.287E-01
DAV:   7    -0.367579561172E+03    0.13950E-03   -0.30240E-04 17152   0.116E-01    0.274E-01
DAV:   8    -0.367579406494E+03    0.15468E-03   -0.22301E-04 17224   0.126E-01    0.240E-01
DAV:   9    -0.367579510107E+03   -0.10361E-03   -0.42976E-04 17296   0.190E-01    0.371E-01
DAV:  10    -0.367579128351E+03    0.38176E-03   -0.50620E-04 20240   0.192E-01    0.172E-01
DAV:  11    -0.367579073025E+03    0.55327E-04   -0.17189E-04 20200   0.824E-02    0.558E-02
DAV:  12    -0.367579088061E+03   -0.15036E-04   -0.51795E-05 20208   0.522E-02    0.790E-02
DAV:  13    -0.367579072324E+03    0.15737E-04   -0.28622E-05 16912   0.439E-02    0.196E-02
DAV:  14    -0.367579076599E+03   -0.42749E-05   -0.69742E-06 17688   0.214E-02    0.424E-02
DAV:  15    -0.367579072736E+03    0.38623E-05   -0.40903E-06 12488   0.191E-02    0.102E-02
DAV:  16    -0.367579072986E+03   -0.24994E-06   -0.10338E-06  8096   0.814E-03
   2 F= -.36757907E+03 E0= -.36756565E+03  d E =-.402652E-01  mag=    44.7787
       N       E                     dE             d eps       ncg     rms          rms(c)
DAV:   1    -0.367441479605E+03    0.13759E+00   -0.47068E+00 20620   0.179E+01    0.378E-01
DAV:   2    -0.367582323859E+03   -0.14084E+00   -0.13669E+00 15798   0.183E+00    0.139E+00
DAV:   3    -0.367581861290E+03    0.46257E-03   -0.47298E-02 19384   0.753E-01    0.400E-01
DAV:   4    -0.367583170083E+03   -0.13088E-02   -0.44013E-03 19248   0.435E-01    0.758E-01
DAV:   5    -0.367581821503E+03    0.13486E-02   -0.14465E-03 16736   0.334E-01    0.158E-01
DAV:   6    -0.367581788483E+03    0.33021E-04   -0.19211E-04 18800   0.832E-02    0.920E-02
DAV:   7    -0.367581774781E+03    0.13701E-04   -0.58024E-05 17712   0.562E-02    0.991E-02
DAV:   8    -0.367581751148E+03    0.23633E-04   -0.53398E-05 17440   0.638E-02    0.813E-02
DAV:   9    -0.367581797093E+03   -0.45945E-04   -0.86798E-05 17672   0.882E-02    0.164E-01
DAV:  10    -0.367581727408E+03    0.69685E-04   -0.80991E-05 18528   0.801E-02    0.566E-02
DAV:  11    -0.367581721792E+03    0.56156E-05   -0.22779E-05 20368   0.289E-02    0.192E-02
DAV:  12    -0.367581723272E+03   -0.14800E-05   -0.60779E-06 15624   0.176E-02    0.249E-02
DAV:  13    -0.367581721700E+03    0.15723E-05   -0.28278E-06 10632   0.139E-02    0.594E-03
DAV:  14    -0.367581721973E+03   -0.27285E-06   -0.48967E-07  8046   0.583E-03
   3 F= -.36758172E+03 E0= -.36756830E+03  d E =-.402762E-01  mag=    44.7788
       N       E                     dE             d eps       ncg     rms          rms(c)
DAV:   1    -0.367293665840E+03    0.28806E+00   -0.85675E+00 20696   0.262E+01    0.943E-01
DAV:   2    -0.367593975427E+03   -0.30031E+00   -0.28400E+00 15994   0.273E+00    0.285E+00
DAV:   3    -0.367585458980E+03    0.85164E-02   -0.13102E-01 18800   0.151E+00    0.126E+00
DAV:   4    -0.367590348113E+03   -0.48891E-02   -0.19951E-02 19000   0.103E+00    0.182E+00
DAV:   5    -0.367582390159E+03    0.79580E-02   -0.69114E-03 16766   0.755E-01    0.382E-01
DAV:   6    -0.367582244741E+03    0.14542E-03   -0.10702E-03 19568   0.176E-01    0.259E-01
DAV:   7    -0.367582120640E+03    0.12410E-03   -0.25999E-04 17186   0.111E-01    0.249E-01
DAV:   8    -0.367581992309E+03    0.12833E-03   -0.21849E-04 17384   0.126E-01    0.222E-01
DAV:   9    -0.367582126241E+03   -0.13393E-03   -0.43680E-04 17328   0.191E-01    0.366E-01
DAV:  10    -0.367581768663E+03    0.35758E-03   -0.46830E-04 19800   0.185E-01    0.159E-01
DAV:  11    -0.367581720936E+03    0.47727E-04   -0.15005E-04 20184   0.770E-02    0.487E-02
DAV:  12    -0.367581734772E+03   -0.13836E-04   -0.43757E-05 19928   0.477E-02    0.721E-02
DAV:  13    -0.367581721523E+03    0.13249E-04   -0.23689E-05 16768   0.401E-02    0.180E-02
DAV:  14    -0.367581724634E+03   -0.31112E-05   -0.53052E-06 15664   0.189E-02    0.373E-02
DAV:  15    -0.367581721662E+03    0.29721E-05   -0.31584E-06 10544   0.168E-02    0.874E-03
DAV:  16    -0.367581721875E+03   -0.21287E-06   -0.88751E-07  8064   0.738E-03
   4 F= -.36758172E+03 E0= -.36756830E+03  d E =-.402785E-01  mag=    44.7788
       N       E                     dE             d eps       ncg     rms          rms(c)
DAV:   1    -0.367432265105E+03    0.14946E+00   -0.46319E+00 20528   0.180E+01    0.552E-01
DAV:   2    -0.367580456986E+03   -0.14819E+00   -0.14442E+00 15842   0.189E+00    0.150E+00
DAV:   3    -0.367580758068E+03   -0.30108E-03   -0.56541E-02 19008   0.929E-01    0.846E-01
DAV:   4    -0.367581742699E+03   -0.98463E-03   -0.74538E-03 18706   0.594E-01    0.100E+00
DAV:   5    -0.367579313355E+03    0.24293E-02   -0.21932E-03 16820   0.427E-01    0.211E-01
DAV:   6    -0.367579278629E+03    0.34726E-04   -0.32507E-04 19264   0.931E-02    0.160E-01
DAV:   7    -0.367579227949E+03    0.50680E-04   -0.70957E-05 17130   0.570E-02    0.147E-01
DAV:   8    -0.367579190349E+03    0.37600E-04   -0.54522E-05 17176   0.635E-02    0.136E-01
DAV:   9    -0.367579197325E+03   -0.69758E-05   -0.12081E-04 17536   0.103E-01    0.196E-01
DAV:  10    -0.367579073936E+03    0.12339E-03   -0.13020E-04 20136   0.980E-02    0.443E-02
DAV:  11    -0.367579076362E+03   -0.24253E-05   -0.40268E-05 20304   0.340E-02    0.441E-02
DAV:  12    -0.367579076627E+03   -0.26511E-06   -0.13798E-05 17272   0.274E-02    0.423E-02
DAV:  13    -0.367579072583E+03    0.40436E-05   -0.72064E-06 16248   0.214E-02    0.111E-02
DAV:  14    -0.367579073178E+03   -0.59465E-06   -0.12781E-06  8688   0.910E-03
   5 F= -.36757907E+03 E0= -.36756565E+03  d E =-.402645E-01  mag=    44.7788
