 vasp.5.4.1 05Feb16 (build Oct 12 2016 17:31:35) complex                        
  
 executed on           IFC91_ompi date 2020.09.07  13:57:48
 running on    1 total cores
 distrk:  each k-point on    1 cores,    1 groups
 distr:  one band on NCORES_PER_BAND=   1 cores,    1 groups


--------------------------------------------------------------------------------------------------------


 INCAR:
 POTCAR:   PAW_PBE Ni_pv 06Sep2000                
 POTCAR:   PAW_PBE Ni_pv 06Sep2000                
  local pseudopotential read in
  partial core-charges read in
  atomic valenz-charges read in
  non local Contribution for L=           1  read in
    real space projection operators read in
  non local Contribution for L=           1  read in
    real space projection operators read in
  non local Contribution for L=           2  read in
    real space projection operators read in
  non local Contribution for L=           2  read in
    real space projection operators read in
  non local Contribution for L=           0  read in
    real space projection operators read in
  non local Contribution for L=           0  read in
    real space projection operators read in
    PAW grid and wavefunctions read in
 
   number of l-projection  operators is LMAX  =           6
   number of lm-projection operators is LMMAX =          18
 
 Optimization of the real space projectors (new method)

 maximal supplied QI-value         = 18.90
 optimisation between [QCUT,QGAM] = [  9.83, 19.65] = [ 27.04,108.16] Ry 
 Optimized for a Real-space Cutoff    1.44 Angstroem

   l    n(q)    QCUT    max X(q) W(low)/X(q) W(high)/X(q)  e(spline) 
   1      8     9.827     3.231    0.38E-04    0.39E-04    0.57E-07
   1      8     9.827     4.241    0.57E-04    0.19E-03    0.30E-06
   2      7     9.827     3.566    0.29E-04    0.66E-04    0.48E-07
   2      7     9.827    20.429    0.17E-03    0.37E-03    0.30E-06
   0      8     9.827    19.799    0.18E-04    0.76E-05    0.78E-08
   0      8     9.827    52.283    0.39E-04    0.68E-04    0.44E-07
 PAW_PBE Ni_pv 06Sep2000                :
 energy of atom  1       EATOM=-3500.3496
 kinetic energy error for atom=    0.1419 (will be added to EATOM!!)
 
 
 POSCAR: Supercell by Yi Wang                    
  positions in direct lattice
  No initial velocities read in
 exchange correlation table for  LEXCH =        8
   RHO(1)=    0.500       N(1)  =     2000
   RHO(2)=  100.500       N(2)  =     4000
 


--------------------------------------------------------------------------------------------------------


 ion  position               nearest neighbor table
   1  0.000  0.000  0.000-   2 2.53   4 2.53   5 2.53   8 2.53  13 2.53  14 2.53  17 2.53  20 2.53
                            29 2.53  49 2.53  50 2.53  53 2.53
   2  0.000  0.000  0.250-   1 2.53   3 2.53   5 2.53   6 2.53  14 2.53  15 2.53  17 2.53  18 2.53
                            30 2.53  50 2.53  51 2.53  54 2.53
   3  0.000  0.000  0.500-   2 2.53   4 2.53   6 2.53   7 2.53  15 2.53  16 2.53  18 2.53  19 2.53
                            31 2.53  51 2.53  52 2.53  55 2.53
   4  0.000  0.000  0.750-   1 2.53   3 2.53   7 2.53   8 2.53  13 2.53  16 2.53  19 2.53  20 2.53
                            32 2.53  49 2.53  52 2.53  56 2.53
   5  0.000  0.250  0.000-   1 2.53   2 2.53   6 2.53   8 2.53   9 2.53  12 2.53  17 2.53  21 2.53
                            24 2.53  53 2.53  54 2.53  57 2.53
   6  0.000  0.250  0.250-   2 2.53   3 2.53   5 2.53   7 2.53   9 2.53  10 2.53  18 2.53  21 2.53
                            22 2.53  54 2.53  55 2.53  58 2.53
   7  0.000  0.250  0.500-   3 2.53   4 2.53   6 2.53   8 2.53  10 2.53  11 2.53  19 2.53  22 2.53
                            23 2.53  55 2.53  56 2.53  59 2.53
   8  0.000  0.250  0.750-   1 2.53   4 2.53   5 2.53   7 2.53  11 2.53  12 2.53  20 2.53  23 2.53
                            24 2.53  53 2.53  56 2.53  60 2.53
   9  0.000  0.500  0.000-   5 2.53   6 2.53  10 2.53  12 2.53  13 2.53  16 2.53  21 2.53  25 2.53
                            28 2.53  57 2.53  58 2.53  61 2.53
  10  0.000  0.500  0.250-   6 2.53   7 2.53   9 2.53  11 2.53  13 2.53  14 2.53  22 2.53  25 2.53
                            26 2.53  58 2.53  59 2.53  62 2.53
  11  0.000  0.500  0.500-   7 2.53   8 2.53  10 2.53  12 2.53  14 2.53  15 2.53  23 2.53  26 2.53
                            27 2.53  59 2.53  60 2.53  63 2.53
  12  0.000  0.500  0.750-   5 2.53   8 2.53   9 2.53  11 2.53  15 2.53  16 2.53  24 2.53  27 2.53
                            28 2.53  57 2.53  60 2.53  64 2.53
  13  0.000  0.750  0.000-   1 2.53   4 2.53   9 2.53  10 2.53  14 2.53  16 2.53  25 2.53  29 2.53
                            32 2.53  49 2.53  61 2.53  62 2.53
  14  0.000  0.750  0.250-   1 2.53   2 2.53  10 2.53  11 2.53  13 2.53  15 2.53  26 2.53  29 2.53
                            30 2.53  50 2.53  62 2.53  63 2.53
  15  0.000  0.750  0.500-   2 2.53   3 2.53  11 2.53  12 2.53  14 2.53  16 2.53  27 2.53  30 2.53
                            31 2.53  51 2.53  63 2.53  64 2.53
  16  0.000  0.750  0.750-   3 2.53   4 2.53   9 2.53  12 2.53  13 2.53  15 2.53  28 2.53  31 2.53
                            32 2.53  52 2.53  61 2.53  64 2.53
  17  0.250  0.000  0.000-   1 2.53   2 2.53   5 2.53  18 2.53  20 2.53  21 2.53  24 2.53  29 2.53
                            30 2.53  33 2.53  36 2.53  45 2.53
  18  0.250  0.000  0.250-   2 2.53   3 2.53   6 2.53  17 2.53  19 2.53  21 2.53  22 2.53  30 2.53
                            31 2.53  33 2.53  34 2.53  46 2.53
  19  0.250  0.000  0.500-   3 2.53   4 2.53   7 2.53  18 2.53  20 2.53  22 2.53  23 2.53  31 2.53
                            32 2.53  34 2.53  35 2.53  47 2.53
  20  0.250  0.000  0.750-   1 2.53   4 2.53   8 2.53  17 2.53  19 2.53  23 2.53  24 2.53  29 2.53
                            32 2.53  35 2.53  36 2.53  48 2.53
  21  0.250  0.250  0.000-   5 2.53   6 2.53   9 2.53  17 2.53  18 2.53  22 2.53  24 2.53  25 2.53
                            28 2.53  33 2.53  37 2.53  40 2.53
  22  0.250  0.250  0.250-   6 2.53   7 2.53  10 2.53  18 2.53  19 2.53  21 2.53  23 2.53  25 2.53
                            26 2.53  34 2.53  37 2.53  38 2.53
  23  0.250  0.250  0.500-   7 2.53   8 2.53  11 2.53  19 2.53  20 2.53  22 2.53  24 2.53  26 2.53
                            27 2.53  35 2.53  38 2.53  39 2.53
  24  0.250  0.250  0.750-   5 2.53   8 2.53  12 2.53  17 2.53  20 2.53  21 2.53  23 2.53  27 2.53
                            28 2.53  36 2.53  39 2.53  40 2.53
  25  0.250  0.500  0.000-   9 2.53  10 2.53  13 2.53  21 2.53  22 2.53  26 2.53  28 2.53  29 2.53
                            32 2.53  37 2.53  41 2.53  44 2.53
  26  0.250  0.500  0.250-  10 2.53  11 2.53  14 2.53  22 2.53  23 2.53  25 2.53  27 2.53  29 2.53
                            30 2.53  38 2.53  41 2.53  42 2.53
  27  0.250  0.500  0.500-  11 2.53  12 2.53  15 2.53  23 2.53  24 2.53  26 2.53  28 2.53  30 2.53
                            31 2.53  39 2.53  42 2.53  43 2.53
  28  0.250  0.500  0.750-   9 2.53  12 2.53  16 2.53  21 2.53  24 2.53  25 2.53  27 2.53  31 2.53
                            32 2.53  40 2.53  43 2.53  44 2.53
  29  0.250  0.750  0.000-   1 2.53  13 2.53  14 2.53  17 2.53  20 2.53  25 2.53  26 2.53  30 2.53
                            32 2.53  41 2.53  45 2.53  48 2.53
  30  0.250  0.750  0.250-   2 2.53  14 2.53  15 2.53  17 2.53  18 2.53  26 2.53  27 2.53  29 2.53
                            31 2.53  42 2.53  45 2.53  46 2.53
  31  0.250  0.750  0.500-   3 2.53  15 2.53  16 2.53  18 2.53  19 2.53  27 2.53  28 2.53  30 2.53
                            32 2.53  43 2.53  46 2.53  47 2.53
  32  0.250  0.750  0.750-   4 2.53  13 2.53  16 2.53  19 2.53  20 2.53  25 2.53  28 2.53  29 2.53
                            31 2.53  44 2.53  47 2.53  48 2.53
  33  0.500  0.000  0.000-  17 2.53  18 2.53  21 2.53  34 2.53  36 2.53  37 2.53  40 2.53  45 2.53
                            46 2.53  49 2.53  52 2.53  61 2.53
  34  0.500  0.000  0.250-  18 2.53  19 2.53  22 2.53  33 2.53  35 2.53  37 2.53  38 2.53  46 2.53
                            47 2.53  49 2.53  50 2.53  62 2.53
  35  0.500  0.000  0.500-  19 2.53  20 2.53  23 2.53  34 2.53  36 2.53  38 2.53  39 2.53  47 2.53
                            48 2.53  50 2.53  51 2.53  63 2.53
  36  0.500  0.000  0.750-  17 2.53  20 2.53  24 2.53  33 2.53  35 2.53  39 2.53  40 2.53  45 2.53
                            48 2.53  51 2.53  52 2.53  64 2.53
  37  0.500  0.250  0.000-  21 2.53  22 2.53  25 2.53  33 2.53  34 2.53  38 2.53  40 2.53  41 2.53
                            44 2.53  49 2.53  53 2.53  56 2.53
  38  0.500  0.250  0.250-  22 2.53  23 2.53  26 2.53  34 2.53  35 2.53  37 2.53  39 2.53  41 2.53
                            42 2.53  50 2.53  53 2.53  54 2.53
  39  0.500  0.250  0.500-  23 2.53  24 2.53  27 2.53  35 2.53  36 2.53  38 2.53  40 2.53  42 2.53
                            43 2.53  51 2.53  54 2.53  55 2.53
  40  0.500  0.250  0.750-  21 2.53  24 2.53  28 2.53  33 2.53  36 2.53  37 2.53  39 2.53  43 2.53
                            44 2.53  52 2.53  55 2.53  56 2.53
  41  0.500  0.500  0.000-  25 2.53  26 2.53  29 2.53  37 2.53  38 2.53  42 2.53  44 2.53  45 2.53
                            48 2.53  53 2.53  57 2.53  60 2.53
  42  0.500  0.500  0.250-  26 2.53  27 2.53  30 2.53  38 2.53  39 2.53  41 2.53  43 2.53  45 2.53
                            46 2.53  54 2.53  57 2.53  58 2.53
  43  0.500  0.500  0.500-  27 2.53  28 2.53  31 2.53  39 2.53  40 2.53  42 2.53  44 2.53  46 2.53
                            47 2.53  55 2.53  58 2.53  59 2.53
  44  0.500  0.500  0.750-  25 2.53  28 2.53  32 2.53  37 2.53  40 2.53  41 2.53  43 2.53  47 2.53
                            48 2.53  56 2.53  59 2.53  60 2.53
  45  0.500  0.750  0.000-  17 2.53  29 2.53  30 2.53  33 2.53  36 2.53  41 2.53  42 2.53  46 2.53
                            48 2.53  57 2.53  61 2.53  64 2.53
  46  0.500  0.750  0.250-  18 2.53  30 2.53  31 2.53  33 2.53  34 2.53  42 2.53  43 2.53  45 2.53
                            47 2.53  58 2.53  61 2.53  62 2.53
  47  0.500  0.750  0.500-  19 2.53  31 2.53  32 2.53  34 2.53  35 2.53  43 2.53  44 2.53  46 2.53
                            48 2.53  59 2.53  62 2.53  63 2.53
  48  0.500  0.750  0.750-  20 2.53  29 2.53  32 2.53  35 2.53  36 2.53  41 2.53  44 2.53  45 2.53
                            47 2.53  60 2.53  63 2.53  64 2.53
  49  0.750  0.000  0.000-   1 2.53   4 2.53  13 2.53  33 2.53  34 2.53  37 2.53  50 2.53  52 2.53
                            53 2.53  56 2.53  61 2.53  62 2.53
  50  0.750  0.000  0.250-   1 2.53   2 2.53  14 2.53  34 2.53  35 2.53  38 2.53  49 2.53  51 2.53
                            53 2.53  54 2.53  62 2.53  63 2.53
  51  0.750  0.000  0.500-   2 2.53   3 2.53  15 2.53  35 2.53  36 2.53  39 2.53  50 2.53  52 2.53
                            54 2.53  55 2.53  63 2.53  64 2.53
  52  0.750  0.000  0.750-   3 2.53   4 2.53  16 2.53  33 2.53  36 2.53  40 2.53  49 2.53  51 2.53
                            55 2.53  56 2.53  61 2.53  64 2.53
  53  0.750  0.250  0.000-   1 2.53   5 2.53   8 2.53  37 2.53  38 2.53  41 2.53  49 2.53  50 2.53
                            54 2.53  56 2.53  57 2.53  60 2.53
  54  0.750  0.250  0.250-   2 2.53   5 2.53   6 2.53  38 2.53  39 2.53  42 2.53  50 2.53  51 2.53
                            53 2.53  55 2.53  57 2.53  58 2.53
  55  0.750  0.250  0.500-   3 2.53   6 2.53   7 2.53  39 2.53  40 2.53  43 2.53  51 2.53  52 2.53
                            54 2.53  56 2.53  58 2.53  59 2.53
  56  0.750  0.250  0.750-   4 2.53   7 2.53   8 2.53  37 2.53  40 2.53  44 2.53  49 2.53  52 2.53
                            53 2.53  55 2.53  59 2.53  60 2.53
  57  0.750  0.500  0.000-   5 2.53   9 2.53  12 2.53  41 2.53  42 2.53  45 2.53  53 2.53  54 2.53
                            58 2.53  60 2.53  61 2.53  64 2.53
  58  0.750  0.500  0.250-   6 2.53   9 2.53  10 2.53  42 2.53  43 2.53  46 2.53  54 2.53  55 2.53
                            57 2.53  59 2.53  61 2.53  62 2.53
  59  0.750  0.500  0.500-   7 2.53  10 2.53  11 2.53  43 2.53  44 2.53  47 2.53  55 2.53  56 2.53
                            58 2.53  60 2.53  62 2.53  63 2.53
  60  0.750  0.500  0.750-   8 2.53  11 2.53  12 2.53  41 2.53  44 2.53  48 2.53  53 2.53  56 2.53
                            57 2.53  59 2.53  63 2.53  64 2.53
  61  0.750  0.750  0.000-   9 2.53  13 2.53  16 2.53  33 2.53  45 2.53  46 2.53  49 2.53  52 2.53
                            57 2.53  58 2.53  62 2.53  64 2.53
  62  0.750  0.750  0.250-  10 2.53  13 2.53  14 2.53  34 2.53  46 2.53  47 2.53  49 2.53  50 2.53
                            58 2.53  59 2.53  61 2.53  63 2.53
  63  0.750  0.750  0.500-  11 2.53  14 2.53  15 2.53  35 2.53  47 2.53  48 2.53  50 2.53  51 2.53
                            59 2.53  60 2.53  62 2.53  64 2.53
  64  0.750  0.750  0.750-  12 2.53  15 2.53  16 2.53  36 2.53  45 2.53  48 2.53  51 2.53  52 2.53
                            57 2.53  60 2.53  61 2.53  63 2.53
 
  LATTYP: Found a face centered cubic cell.
 ALAT       =    14.3115000000
  
  Lattice vectors:
  
 A1 = (   0.0000000000,   7.1557500000,   7.1557500000)
 A2 = (   7.1557500000,   0.0000000000,   7.1557500000)
 A3 = (   7.1557500000,   7.1557500000,   0.0000000000)


Analysis of symmetry for initial positions (statically):
=====================================================================
 Subroutine PRICEL returns following result:
 
  LATTYP: Found a face centered cubic cell.
 ALAT       =     3.5778750000
  
  Lattice vectors:
  
 A1 = (   0.0000000000,   1.7889375000,   1.7889375000)
 A2 = (   1.7889375000,   0.0000000000,   1.7889375000)
 A3 = (   1.7889375000,   1.7889375000,   0.0000000000)
 
  64 primitive cells build up your supercell.
 

 Routine SETGRP: Setting up the symmetry group for a 
 face centered cubic supercell.


 Subroutine GETGRP returns: Found 48 space group operations
 (whereof 48 operations were pure point group operations)
 out of a pool of 48 trial point group operations.


The static configuration has the point symmetry O_h .


Analysis of symmetry for dynamics (positions and initial velocities):
=====================================================================
 Subroutine PRICEL returns following result:
 
  LATTYP: Found a face centered cubic cell.
 ALAT       =     3.5778750000
  
  Lattice vectors:
  
 A1 = (   0.0000000000,   1.7889375000,   1.7889375000)
 A2 = (   1.7889375000,   0.0000000000,   1.7889375000)
 A3 = (   1.7889375000,   1.7889375000,   0.0000000000)
 
  64 primitive cells build up your supercell.
 

 Routine SETGRP: Setting up the symmetry group for a 
 face centered cubic supercell.


 Subroutine GETGRP returns: Found 48 space group operations
 (whereof 48 operations were pure point group operations)
 out of a pool of 48 trial point group operations.


The dynamic configuration has the point symmetry O_h .


Analysis of structural, dynamic, and magnetic symmetry:
=====================================================================
 Subroutine PRICEL returns following result:
 
  LATTYP: Found a face centered cubic cell.
 ALAT       =     3.5778750000
  
  Lattice vectors:
  
 A1 = (   0.0000000000,   1.7889375000,   1.7889375000)
 A2 = (   1.7889375000,   0.0000000000,   1.7889375000)
 A3 = (   1.7889375000,   1.7889375000,   0.0000000000)
 
  64 primitive cells build up your supercell.
 

 Routine SETGRP: Setting up the symmetry group for a 
 face centered cubic supercell.


 Subroutine GETGRP returns: Found 48 space group operations
 (whereof 48 operations were pure point group operations)
 out of a pool of 48 trial point group operations.


The magnetic configuration has the point symmetry O_h .


 Subroutine INISYM returns: Found 48 space group operations
 (whereof 48 operations are pure point group operations),
 and found    64 'primitive' translations

 
 
 KPOINTS: Zr 15x15x15                             

Automatic generation of k-mesh.
Space group operators:
 irot       det(A)        alpha          n_x          n_y          n_z        tau_x        tau_y        tau_z
    1     1.000000     0.000000     1.000000     0.000000     0.000000     0.000000     0.000000     0.000000
    2    -1.000000     0.000000     1.000000     0.000000     0.000000     0.000000     0.000000     0.000000
    3     1.000000   120.000000    -0.577350    -0.577350    -0.577350     0.000000     0.000000     0.000000
    4    -1.000000   120.000000    -0.577350    -0.577350    -0.577350     0.000000     0.000000     0.000000
    5     1.000000   120.000000     0.577350     0.577350     0.577350     0.000000     0.000000     0.000000
    6    -1.000000   120.000000     0.577350     0.577350     0.577350     0.000000     0.000000     0.000000
    7     1.000000    90.000000     0.000000     0.000000    -1.000000     0.000000     0.000000     0.000000
    8    -1.000000    90.000000     0.000000     0.000000    -1.000000     0.000000     0.000000     0.000000
    9     1.000000   180.000000     0.000000     0.707107     0.707107     0.000000     0.000000     0.000000
   10    -1.000000   180.000000     0.000000     0.707107     0.707107     0.000000     0.000000     0.000000
   11     1.000000    90.000000     0.000000     1.000000     0.000000     0.000000     0.000000     0.000000
   12    -1.000000    90.000000     0.000000     1.000000     0.000000     0.000000     0.000000     0.000000
   13     1.000000   180.000000     0.000000     0.000000     1.000000     0.000000     0.000000     0.000000
   14    -1.000000   180.000000     0.000000     0.000000     1.000000     0.000000     0.000000     0.000000
   15     1.000000   120.000000    -0.577350     0.577350     0.577350     0.000000     0.000000     0.000000
   16    -1.000000   120.000000    -0.577350     0.577350     0.577350     0.000000     0.000000     0.000000
   17     1.000000   120.000000    -0.577350     0.577350    -0.577350     0.000000     0.000000     0.000000
   18    -1.000000   120.000000    -0.577350     0.577350    -0.577350     0.000000     0.000000     0.000000
   19     1.000000    90.000000     0.000000     0.000000     1.000000     0.000000     0.000000     0.000000
   20    -1.000000    90.000000     0.000000     0.000000     1.000000     0.000000     0.000000     0.000000
   21     1.000000    90.000000    -1.000000     0.000000     0.000000     0.000000     0.000000     0.000000
   22    -1.000000    90.000000    -1.000000     0.000000     0.000000     0.000000     0.000000     0.000000
   23     1.000000   180.000000     0.707107     0.000000     0.707107     0.000000     0.000000     0.000000
   24    -1.000000   180.000000     0.707107     0.000000     0.707107     0.000000     0.000000     0.000000
   25     1.000000   120.000000     0.577350    -0.577350     0.577350     0.000000     0.000000     0.000000
   26    -1.000000   120.000000     0.577350    -0.577350     0.577350     0.000000     0.000000     0.000000
   27     1.000000   120.000000    -0.577350    -0.577350     0.577350     0.000000     0.000000     0.000000
   28    -1.000000   120.000000    -0.577350    -0.577350     0.577350     0.000000     0.000000     0.000000
   29     1.000000   180.000000     1.000000     0.000000     0.000000     0.000000     0.000000     0.000000
   30    -1.000000   180.000000     1.000000     0.000000     0.000000     0.000000     0.000000     0.000000
   31     1.000000    90.000000     0.000000    -1.000000     0.000000     0.000000     0.000000     0.000000
   32    -1.000000    90.000000     0.000000    -1.000000     0.000000     0.000000     0.000000     0.000000
   33     1.000000   180.000000     0.707107     0.707107     0.000000     0.000000     0.000000     0.000000
   34    -1.000000   180.000000     0.707107     0.707107     0.000000     0.000000     0.000000     0.000000
   35     1.000000    90.000000     1.000000     0.000000     0.000000     0.000000     0.000000     0.000000
   36    -1.000000    90.000000     1.000000     0.000000     0.000000     0.000000     0.000000     0.000000
   37     1.000000   120.000000     0.577350    -0.577350    -0.577350     0.000000     0.000000     0.000000
   38    -1.000000   120.000000     0.577350    -0.577350    -0.577350     0.000000     0.000000     0.000000
   39     1.000000   180.000000     0.000000     1.000000     0.000000     0.000000     0.000000     0.000000
   40    -1.000000   180.000000     0.000000     1.000000     0.000000     0.000000     0.000000     0.000000
   41     1.000000   120.000000     0.577350     0.577350    -0.577350     0.000000     0.000000     0.000000
   42    -1.000000   120.000000     0.577350     0.577350    -0.577350     0.000000     0.000000     0.000000
   43     1.000000   180.000000     0.000000    -0.707107     0.707107     0.000000     0.000000     0.000000
   44    -1.000000   180.000000     0.000000    -0.707107     0.707107     0.000000     0.000000     0.000000
   45     1.000000   180.000000     0.707107    -0.707107     0.000000     0.000000     0.000000     0.000000
   46    -1.000000   180.000000     0.707107    -0.707107     0.000000     0.000000     0.000000     0.000000
   47     1.000000   180.000000     0.707107     0.000000    -0.707107     0.000000     0.000000     0.000000
   48    -1.000000   180.000000     0.707107     0.000000    -0.707107     0.000000     0.000000     0.000000
 
 Subroutine IBZKPT returns following result:
 ===========================================
 
 Found      4 irreducible k-points:
 
 Following reciprocal coordinates:
            Coordinates               Weight
  0.000000  0.000000  0.000000      1.000000
  0.333333  0.000000  0.000000      8.000000
  0.333333  0.333333  0.000000      6.000000
 -0.333333  0.333333  0.000000     12.000000
 
 Following cartesian coordinates:
            Coordinates               Weight
  0.000000  0.000000  0.000000      1.000000
 -0.023291  0.023291  0.023291      8.000000
  0.000000  0.000000  0.046583      6.000000
  0.046583 -0.046583  0.000000     12.000000
 
 
 Subroutine IBZKPT_HF returns following result:
 ==============================================
 
 Found     27 k-points in 1st BZ
 the following     27 k-points will be used (e.g. in the exchange kernel)
 Following reciprocal coordinates:   # in IRBZ
  0.000000  0.000000  0.000000    0.03703704   1 t-inv F
  0.333333  0.000000  0.000000    0.03703704   2 t-inv F
  0.333333  0.333333  0.000000    0.03703704   3 t-inv F
 -0.333333  0.333333  0.000000    0.03703704   4 t-inv F
 -0.333333  0.000000  0.000000    0.03703704   2 t-inv F
  0.000000  0.333333  0.000000    0.03703704   2 t-inv F
  0.000000 -0.333333  0.000000    0.03703704   2 t-inv F
  0.000000  0.000000  0.333333    0.03703704   2 t-inv F
  0.000000  0.000000 -0.333333    0.03703704   2 t-inv F
  0.333333  0.333333  0.333333    0.03703704   2 t-inv F
 -0.333333 -0.333333 -0.333333    0.03703704   2 t-inv F
 -0.333333 -0.333333  0.000000    0.03703704   3 t-inv F
  0.000000  0.333333  0.333333    0.03703704   3 t-inv F
  0.000000 -0.333333 -0.333333    0.03703704   3 t-inv F
  0.333333  0.000000  0.333333    0.03703704   3 t-inv F
 -0.333333  0.000000 -0.333333    0.03703704   3 t-inv F
  0.333333 -0.333333  0.000000    0.03703704   4 t-inv F
  0.000000 -0.333333  0.333333    0.03703704   4 t-inv F
  0.000000  0.333333 -0.333333    0.03703704   4 t-inv F
  0.333333  0.000000 -0.333333    0.03703704   4 t-inv F
 -0.333333  0.000000  0.333333    0.03703704   4 t-inv F
  0.333333  0.333333  0.666667    0.03703704   4 t-inv F
 -0.333333 -0.333333 -0.666667    0.03703704   4 t-inv F
 -0.333333 -0.666667 -0.333333    0.03703704   4 t-inv F
  0.333333  0.666667  0.333333    0.03703704   4 t-inv F
 -0.666667 -0.333333 -0.333333    0.03703704   4 t-inv F
  0.666667  0.333333  0.333333    0.03703704   4 t-inv F


--------------------------------------------------------------------------------------------------------




 Dimension of arrays:
   k-points           NKPTS =      4   k-points in BZ     NKDIM =      4   number of bands    NBANDS=    646
   number of dos      NEDOS =    301   number of ions     NIONS =     64
   non local maximal  LDIM  =      6   non local SUM 2l+1 LMDIM =     18
   total plane-waves  NPLWV = 262144
   max r-space proj   IRMAX =   4518   max aug-charges    IRDMAX=   8097
   dimension x,y,z NGX =    64 NGY =   64 NGZ =   64
   dimension x,y,z NGXF=   128 NGYF=  128 NGZF=  128
   support grid    NGXF=   128 NGYF=  128 NGZF=  128
   ions per type =              64
 NGX,Y,Z   is equivalent  to a cutoff of  10.51, 10.51, 10.51 a.u.
 NGXF,Y,Z  is equivalent  to a cutoff of  21.03, 21.03, 21.03 a.u.


 I would recommend the setting:
   dimension x,y,z NGX =    63 NGY =   63 NGZ =   63
 SYSTEM =  phonon of Zr bcc - omiga                
 POSCAR =  Supercell by Yi Wang                    

 Startparameter for this run:
   NWRITE =      0    write-flag & timer
   PREC   = a         normal or accurate (medium, high low for compatibility)
   ISTART =      0    job   : 0-new  1-cont  2-samecut
   ICHARG =      2    charge: 1-file 2-atom 10-const
   ISPIN  =      2    spin polarized calculation?
   LNONCOLLINEAR =      F non collinear calculations
   LSORBIT =      F    spin-orbit coupling
   INIWAV =      1    electr: 0-lowe 1-rand  2-diag
   LASPH  =      F    aspherical Exc in radial PAW
   METAGGA=      F    non-selfconsistent MetaGGA calc.

 Electronic Relaxation 1
   ENCUT  =  367.9 eV  27.04 Ry    5.20 a.u.  15.83 15.83 15.83*2*pi/ulx,y,z
   ENINI  =  367.9     initial cutoff
   ENAUG  =  703.4 eV  augmentation charge cutoff
   NELM   =     60;   NELMIN=  2; NELMDL= -5     # of ELM steps 
   EDIFF  = 0.1E-05   stopping-criterion for ELM
   LREAL  =      T    real-space projection
   NLSPLINE    = F    spline interpolate recip. space projectors
   LCOMPAT=      F    compatible to vasp.4.4
   GGA_COMPAT  = T    GGA compatible to vasp.4.4-vasp.4.6
   LMAXPAW     = -100 max onsite density
   LMAXMIX     =    2 max onsite mixed and CHGCAR
   VOSKOWN=      0    Vosko Wilk Nusair interpolation
   ROPT   =   -0.00025
 Ionic relaxation
   EDIFFG = 0.1E-04   stopping-criterion for IOM
   NSW    =    805    number of steps for IOM
   NBLOCK =      1;   KBLOCK =      1    inner block; outer block 
   IBRION =      6    ionic relax: 0-MD 1-quasi-New 2-CG
   NFREE  =      4    steps in history (QN), initial steepest desc. (CG)
   ISIF   =      2    stress and relaxation
   IWAVPR =     11    prediction:  0-non 1-charg 2-wave 3-comb
   ISYM   =      2    0-nonsym 1-usesym 2-fastsym
   LCORR  =      T    Harris-Foulkes like correction to forces

   POTIM  = 0.5000    time-step for ionic-motion
   TEIN   =    0.0    initial temperature
   TEBEG  =    0.0;   TEEND  =   0.0 temperature during run
   SMASS  =  -3.00    Nose mass-parameter (am)
   estimated Nose-frequenzy (Omega)   =  0.10E-29 period in steps =****** mass=  -0.234E-26a.u.
   SCALEE = 1.0000    scale energy and forces
   NPACO  =    256;   APACO  = 16.0  distance and # of slots for P.C.
   PSTRESS=    0.0 pullay stress

  Mass of Ions in am
   POMASS =  58.69
  Ionic Valenz
   ZVAL   =  16.00
  Atomic Wigner-Seitz radii
   RWIGS  =  -1.00
  virtual crystal weights 
   VCA    =   1.00
   NELECT =    1024.0000    total number of electrons
   NUPDOWN=      -1.0000    fix difference up-down

 DOS related values:
   EMIN   =  10.00;   EMAX   =-10.00  energy-range for DOS
   EFERMI =   0.00
   ISMEAR =     1;   SIGMA  =   0.20  broadening in eV -4-tet -1-fermi 0-gaus

 Electronic relaxation 2 (details)
   IALGO  =     38    algorithm
   LDIAG  =      T    sub-space diagonalisation (order eigenvalues)
   LSUBROT=      F    optimize rotation matrix (better conditioning)
   TURBO    =      0    0=normal 1=particle mesh
   IRESTART =      0    0=no restart 2=restart with 2 vectors
   NREBOOT  =      0    no. of reboots
   NMIN     =      0    reboot dimension
   EREF     =   0.00    reference energy to select bands
   IMIX   =      4    mixing-type and parameters
     AMIX     =   0.40;   BMIX     =  1.00
     AMIX_MAG =   1.60;   BMIX_MAG =  1.00
     AMIN     =   0.10
     WC   =   100.;   INIMIX=   1;  MIXPRE=   1;  MAXMIX= -45

 Intra band minimization:
   WEIMIN = 0.0010     energy-eigenvalue tresh-hold
   EBREAK =  0.39E-09  absolut break condition
   DEPER  =   0.30     relativ break condition  

   TIME   =   0.40     timestep for ELM

  volume/ion in A,a.u.               =      11.45        77.27
  Fermi-wavevector in a.u.,A,eV,Ry     =   1.830247  3.458665 45.576842  3.349803
  Thomas-Fermi vector in A             =   2.884754
 
 Write flags
   LWAVE  =      T    write WAVECAR
   LCHARG =      T    write CHGCAR
   LVTOT  =      F    write LOCPOT, total local potential
   LVHAR  =      F    write LOCPOT, Hartree potential only
   LELF   =      F    write electronic localiz. function (ELF)
   LORBIT =      0    0 simple, 1 ext, 2 COOP (PROOUT)


 Dipole corrections
   LMONO  =      F    monopole corrections only (constant potential shift)
   LDIPOL =      F    correct potential (dipole corrections)
   IDIPOL =      0    1-x, 2-y, 3-z, 4-all directions 
   EPSILON=  1.0000000 bulk dielectric constant

 Exchange correlation treatment:
   GGA     =    --    GGA type
   LEXCH   =     8    internal setting for exchange type
   VOSKOWN=      0    Vosko Wilk Nusair interpolation
   LHFCALC =     F    Hartree Fock is set to
   LHFONE  =     F    Hartree Fock one center treatment
   AEXX    =    0.0000 exact exchange contribution

 Linear response parameters
   LEPSILON=     F    determine dielectric tensor
   LRPA    =     F    only Hartree local field effects (RPA)
   LNABLA  =     F    use nabla operator in PAW spheres
   LVEL    =     F    velocity operator in full k-point grid
   LINTERFAST=   F  fast interpolation
   KINTER  =     0    interpolate to denser k-point grid
   CSHIFT  =0.1000    complex shift for real part using Kramers Kronig
   OMEGAMAX=  -1.0    maximum frequency
   DEG_THRESHOLD= 0.2000000E-02 threshold for treating states as degnerate
   RTIME   =    0.100 relaxation time in fs

 Orbital magnetization related:
   ORBITALMAG=     F  switch on orbital magnetization
   LCHIMAG   =     F  perturbation theory with respect to B field
   DQ        =  0.001000  dq finite difference perturbation B field



--------------------------------------------------------------------------------------------------------


 finite differences with symmetry
 charge density and potential will be updated during run
 spin polarized calculation
 Variant of blocked Davidson
 Davidson routine will perform the subspace rotation
 perform sub-space diagonalisation
    after iterative eigenvector-optimisation
 modified Broyden-mixing scheme, WC =      100.0
 initial mixing is a Kerker type mixing with AMIX =  0.4000 and BMIX =      1.0000
 Hartree-type preconditioning will be used
 using additional bands          134
 real space projection scheme for non local part
 use partial core corrections
 calculate Harris-corrections to forces 
   (improved forces if not selfconsistent)
 use gradient corrections 
 use of overlap-Matrix (Vanderbilt PP)
 Methfessel and Paxton  Order N= 1 SIGMA  =   0.20


--------------------------------------------------------------------------------------------------------


  energy-cutoff  :      367.94
  volume of cell :      732.82
      direct lattice vectors                 reciprocal lattice vectors
     0.000000000  7.155750000  7.155750000    -0.069873878  0.069873878  0.069873878
     7.155750000  0.000000000  7.155750000     0.069873878 -0.069873878  0.069873878
     7.155750000  7.155750000  0.000000000     0.069873878  0.069873878 -0.069873878

  length of vectors
    10.119758699 10.119758699 10.119758699     0.121025106  0.121025106  0.121025106


 
 k-points in units of 2pi/SCALE and weight: Zr 15x15x15                             
   0.00000000  0.00000000  0.00000000       0.037
  -0.02329129  0.02329129  0.02329129       0.296
   0.00000000  0.00000000  0.04658259       0.222
   0.04658259 -0.04658259  0.00000000       0.444
 
 k-points in reciprocal lattice and weights: Zr 15x15x15                             
   0.00000000  0.00000000  0.00000000       0.037
   0.33333333  0.00000000  0.00000000       0.296
   0.33333333  0.33333333  0.00000000       0.222
  -0.33333333  0.33333333  0.00000000       0.444
 
 position of ions in fractional coordinates (direct lattice) 
   0.00000000  0.00000000  0.00000000
   0.00000000  0.00000000  0.25000000
   0.00000000  0.00000000  0.50000000
   0.00000000  0.00000000  0.75000000
   0.00000000  0.25000000  0.00000000
   0.00000000  0.25000000  0.25000000
   0.00000000  0.25000000  0.50000000
   0.00000000  0.25000000  0.75000000
   0.00000000  0.50000000  0.00000000
   0.00000000  0.50000000  0.25000000
   0.00000000  0.50000000  0.50000000
   0.00000000  0.50000000  0.75000000
   0.00000000  0.75000000  0.00000000
   0.00000000  0.75000000  0.25000000
   0.00000000  0.75000000  0.50000000
   0.00000000  0.75000000  0.75000000
   0.25000000  0.00000000  0.00000000
   0.25000000  0.00000000  0.25000000
   0.25000000  0.00000000  0.50000000
   0.25000000  0.00000000  0.75000000
   0.25000000  0.25000000  0.00000000
   0.25000000  0.25000000  0.25000000
   0.25000000  0.25000000  0.50000000
   0.25000000  0.25000000  0.75000000
   0.25000000  0.50000000  0.00000000
   0.25000000  0.50000000  0.25000000
   0.25000000  0.50000000  0.50000000
   0.25000000  0.50000000  0.75000000
   0.25000000  0.75000000  0.00000000
   0.25000000  0.75000000  0.25000000
   0.25000000  0.75000000  0.50000000
   0.25000000  0.75000000  0.75000000
   0.50000000  0.00000000  0.00000000
   0.50000000  0.00000000  0.25000000
   0.50000000  0.00000000  0.50000000
   0.50000000  0.00000000  0.75000000
   0.50000000  0.25000000  0.00000000
   0.50000000  0.25000000  0.25000000
   0.50000000  0.25000000  0.50000000
   0.50000000  0.25000000  0.75000000
   0.50000000  0.50000000  0.00000000
   0.50000000  0.50000000  0.25000000
   0.50000000  0.50000000  0.50000000
   0.50000000  0.50000000  0.75000000
   0.50000000  0.75000000  0.00000000
   0.50000000  0.75000000  0.25000000
   0.50000000  0.75000000  0.50000000
   0.50000000  0.75000000  0.75000000
   0.75000000  0.00000000  0.00000000
   0.75000000  0.00000000  0.25000000
   0.75000000  0.00000000  0.50000000
   0.75000000  0.00000000  0.75000000
   0.75000000  0.25000000  0.00000000
   0.75000000  0.25000000  0.25000000
   0.75000000  0.25000000  0.50000000
   0.75000000  0.25000000  0.75000000
   0.75000000  0.50000000  0.00000000
   0.75000000  0.50000000  0.25000000
   0.75000000  0.50000000  0.50000000
   0.75000000  0.50000000  0.75000000
   0.75000000  0.75000000  0.00000000
   0.75000000  0.75000000  0.25000000
   0.75000000  0.75000000  0.50000000
   0.75000000  0.75000000  0.75000000
 
 position of ions in cartesian coordinates  (Angst):
   0.00000000  0.00000000  0.00000000
   1.78893750  1.78893750  0.00000000
   3.57787500  3.57787500  0.00000000
   5.36681250  5.36681250  0.00000000
   1.78893750  0.00000000  1.78893750
   3.57787500  1.78893750  1.78893750
   5.36681250  3.57787500  1.78893750
   7.15575000  5.36681250  1.78893750
   3.57787500  0.00000000  3.57787500
   5.36681250  1.78893750  3.57787500
   7.15575000  3.57787500  3.57787500
   8.94468750  5.36681250  3.57787500
   5.36681250  0.00000000  5.36681250
   7.15575000  1.78893750  5.36681250
   8.94468750  3.57787500  5.36681250
  10.73362500  5.36681250  5.36681250
   0.00000000  1.78893750  1.78893750
   1.78893750  3.57787500  1.78893750
   3.57787500  5.36681250  1.78893750
   5.36681250  7.15575000  1.78893750
   1.78893750  1.78893750  3.57787500
   3.57787500  3.57787500  3.57787500
   5.36681250  5.36681250  3.57787500
   7.15575000  7.15575000  3.57787500
   3.57787500  1.78893750  5.36681250
   5.36681250  3.57787500  5.36681250
   7.15575000  5.36681250  5.36681250
   8.94468750  7.15575000  5.36681250
   5.36681250  1.78893750  7.15575000
   7.15575000  3.57787500  7.15575000
   8.94468750  5.36681250  7.15575000
  10.73362500  7.15575000  7.15575000
   0.00000000  3.57787500  3.57787500
   1.78893750  5.36681250  3.57787500
   3.57787500  7.15575000  3.57787500
   5.36681250  8.94468750  3.57787500
   1.78893750  3.57787500  5.36681250
   3.57787500  5.36681250  5.36681250
   5.36681250  7.15575000  5.36681250
   7.15575000  8.94468750  5.36681250
   3.57787500  3.57787500  7.15575000
   5.36681250  5.36681250  7.15575000
   7.15575000  7.15575000  7.15575000
   8.94468750  8.94468750  7.15575000
   5.36681250  3.57787500  8.94468750
   7.15575000  5.36681250  8.94468750
   8.94468750  7.15575000  8.94468750
  10.73362500  8.94468750  8.94468750
   0.00000000  5.36681250  5.36681250
   1.78893750  7.15575000  5.36681250
   3.57787500  8.94468750  5.36681250
   5.36681250 10.73362500  5.36681250
   1.78893750  5.36681250  7.15575000
   3.57787500  7.15575000  7.15575000
   5.36681250  8.94468750  7.15575000
   7.15575000 10.73362500  7.15575000
   3.57787500  5.36681250  8.94468750
   5.36681250  7.15575000  8.94468750
   7.15575000  8.94468750  8.94468750
   8.94468750 10.73362500  8.94468750
   5.36681250  5.36681250 10.73362500
   7.15575000  7.15575000 10.73362500
   8.94468750  8.94468750 10.73362500
  10.73362500 10.73362500 10.73362500
 


--------------------------------------------------------------------------------------------------------


 k-point  1 :   0.0000 0.0000 0.0000  plane waves:   11791
 k-point  2 :   0.3333 0.0000 0.0000  plane waves:   11699
 k-point  3 :   0.3333 0.3333 0.0000  plane waves:   11774
 k-point  4 :  -0.3333 0.3333 0.0000  plane waves:   11776

 maximum and minimum number of plane-waves per node :     11791    11699

 maximum number of plane-waves:     11791
 maximum index in each direction: 
   IXMAX=   16   IYMAX=   15   IZMAX=   15
   IXMIN=  -16   IYMIN=  -16   IZMIN=  -15

 WARNING: aliasing errors must be expected set NGX to  66 to avoid them
 NGY is ok and might be reduce to  64
 NGZ is ok and might be reduce to  62
 aliasing errors are usually negligible using standard VASP settings
 and one can safely disregard these warnings

 serial   3D FFT for wavefunctions
 parallel 3D FFT for charge:
    minimum data exchange during FFTs selected (reduces bandwidth)


 total amount of memory used by VASP on root node  1397299. kBytes
========================================================================

   base      :      30000. kBytes
   nonlr-proj:      48671. kBytes
   fftplans  :      72476. kBytes
   grid      :     173932. kBytes
   one-center:       1990. kBytes
   wavefun   :    1070230. kBytes
 
     INWAV:  cpu time    0.0000: real time    0.0000
 Broyden mixing: mesh for mixing (old mesh)
   NGX = 31   NGY = 31   NGZ = 31
  (NGX  =128   NGY  =128   NGZ  =128)
  gives a total of  29791 points

 initial charge density was supplied:
 charge density of overlapping atoms calculated
 number of electron    1024.0000000 magnetization      64.0000000
 keeping initial charge density in first step


--------------------------------------------------------------------------------------------------------


 Maximum index for non-local projection operator         4321
 Maximum index for augmentation-charges         7707 (set IRDMAX)


--------------------------------------------------------------------------------------------------------


 First call to EWALD:  gamma=   0.197
 Maximum number of real-space cells 3x 3x 3
 Maximum number of reciprocal cells 3x 3x 3

 FEWALD executed in parallel
    FEWALD:  cpu time    0.0220: real time    0.0221


----------------------------------------- Iteration    1(   1)  ---------------------------------------


    POTLOK:  cpu time    2.3386: real time    2.3577
    SETDIJ:  cpu time    0.3849: real time    0.3848
     EDDAV:  cpu time  469.8946: real time  469.5196
       DOS:  cpu time    0.0130: real time    0.0132
    --------------------------------------------
      LOOP:  cpu time  472.6311: real time  472.2767

 eigenvalue-minimisations  : 12008
 total energy-change (2. order) : 0.1382701E+05  (-0.5468548E+05)
 number of electron    1024.0000000 magnetization      64.0000000
 augmentation part     1024.0000000 magnetization      64.0000000

 Free energy of the ion-electron system (eV)
  ---------------------------------------------------
  alpha Z        PSCENC =      9415.99145534
  Ewald energy   TEWEN  =   -151163.59208203
  -Hartree energ DENC   =    -63206.27708491
  -exchange      EXHF   =         0.00000000
  -V(xc)+E(xc)   XCENC  =      5707.96949344
  PAW double counting   =    172361.15642774  -181272.45834873
  entropy T*S    EENTRO =        -0.00798345
  eigenvalues    EBANDS =     -2029.06278973
  atomic energy  EATOM  =    224013.29143063
  Solvation  Ediel_sol  =         0.00000000
  ---------------------------------------------------
  free energy    TOTEN  =     13827.01051831 eV

  energy without entropy =    13827.01850176  energy(sigma->0) =    13827.01317946


--------------------------------------------------------------------------------------------------------




----------------------------------------- Iteration    1(   2)  ---------------------------------------


     EDDAV:  cpu time  431.4704: real time  431.1178
       DOS:  cpu time    0.0150: real time    0.0142
    --------------------------------------------
      LOOP:  cpu time  431.4854: real time  431.1327

 eigenvalue-minimisations  : 10336
 total energy-change (2. order) :-0.1304752E+05  (-0.1263996E+05)
 number of electron    1024.0000000 magnetization      64.0000000
 augmentation part     1024.0000000 magnetization      64.0000000

 Free energy of the ion-electron system (eV)
  ---------------------------------------------------
  alpha Z        PSCENC =      9415.99145534
  Ewald energy   TEWEN  =   -151163.59208203
  -Hartree energ DENC   =    -63206.27708491
  -exchange      EXHF   =         0.00000000
  -V(xc)+E(xc)   XCENC  =      5707.96949344
  PAW double counting   =    172361.15642774  -181272.45834873
  entropy T*S    EENTRO =         0.00871906
  eigenvalues    EBANDS =    -15076.59701649
  atomic energy  EATOM  =    224013.29143063
  Solvation  Ediel_sol  =         0.00000000
  ---------------------------------------------------
  free energy    TOTEN  =       779.49299406 eV

  energy without entropy =      779.48427500  energy(sigma->0) =      779.49008771


--------------------------------------------------------------------------------------------------------




----------------------------------------- Iteration    1(   3)  ---------------------------------------


     EDDAV:  cpu time  440.1521: real time  439.7944
       DOS:  cpu time    0.0150: real time    0.0153
    --------------------------------------------
      LOOP:  cpu time  440.1681: real time  439.8103

 eigenvalue-minimisations  : 10648
 total energy-change (2. order) :-0.1151620E+04  (-0.9582164E+03)
 number of electron    1024.0000000 magnetization      64.0000000
 augmentation part     1024.0000000 magnetization      64.0000000

 Free energy of the ion-electron system (eV)
  ---------------------------------------------------
  alpha Z        PSCENC =      9415.99145534
  Ewald energy   TEWEN  =   -151163.59208203
  -Hartree energ DENC   =    -63206.27708491
  -exchange      EXHF   =         0.00000000
  -V(xc)+E(xc)   XCENC  =      5707.96949344
  PAW double counting   =    172361.15642774  -181272.45834873
  entropy T*S    EENTRO =         0.18032750
  eigenvalues    EBANDS =    -16228.38865805
  atomic energy  EATOM  =    224013.29143063
  Solvation  Ediel_sol  =         0.00000000
  ---------------------------------------------------
  free energy    TOTEN  =      -372.12703906 eV

  energy without entropy =     -372.30736656  energy(sigma->0) =     -372.18714823


--------------------------------------------------------------------------------------------------------




----------------------------------------- Iteration    1(   4)  ---------------------------------------


     EDDAV:  cpu time  444.1755: real time  443.8124
       DOS:  cpu time    0.0160: real time    0.0155
    --------------------------------------------
      LOOP:  cpu time  444.1915: real time  443.8286

 eigenvalue-minimisations  : 11080
 total energy-change (2. order) :-0.5813457E+02  (-0.5681113E+02)
 number of electron    1024.0000000 magnetization      64.0000000
 augmentation part     1024.0000000 magnetization      64.0000000

 Free energy of the ion-electron system (eV)
  ---------------------------------------------------
  alpha Z        PSCENC =      9415.99145534
  Ewald energy   TEWEN  =   -151163.59208203
  -Hartree energ DENC   =    -63206.27708491
  -exchange      EXHF   =         0.00000000
  -V(xc)+E(xc)   XCENC  =      5707.96949344
  PAW double counting   =    172361.15642774  -181272.45834873
  entropy T*S    EENTRO =         0.17712803
  eigenvalues    EBANDS =    -16286.52002811
  atomic energy  EATOM  =    224013.29143063
  Solvation  Ediel_sol  =         0.00000000
  ---------------------------------------------------
  free energy    TOTEN  =      -430.26160859 eV

  energy without entropy =     -430.43873662  energy(sigma->0) =     -430.32065127


--------------------------------------------------------------------------------------------------------




----------------------------------------- Iteration    1(   5)  ---------------------------------------


     EDDAV:  cpu time  429.3477: real time  428.9977
       DOS:  cpu time    0.0150: real time    0.0150
    CHARGE:  cpu time   20.8138: real time   20.7966
    MIXING:  cpu time    0.0430: real time    0.0431
    --------------------------------------------
      LOOP:  cpu time  450.2196: real time  449.8532

 eigenvalue-minimisations  : 10944
 total energy-change (2. order) :-0.8432060E+00  (-0.8427143E+00)
 number of electron    1024.0003426 magnetization      57.9940176
 augmentation part      573.0156483 magnetization      46.4151482

 Broyden mixing:
  rms(total) = 0.68118E+01    rms(broyden)= 0.67994E+01
  rms(prec ) = 0.92324E+01
  weight for this iteration     100.00

 Free energy of the ion-electron system (eV)
  ---------------------------------------------------
  alpha Z        PSCENC =      9415.99145534
  Ewald energy   TEWEN  =   -151163.59208203
  -Hartree energ DENC   =    -63206.27708491
  -exchange      EXHF   =         0.00000000
  -V(xc)+E(xc)   XCENC  =      5707.96949344
  PAW double counting   =    172361.15642774  -181272.45834873
  entropy T*S    EENTRO =         0.17711007
  eigenvalues    EBANDS =    -16287.36321616
  atomic energy  EATOM  =    224013.29143063
  Solvation  Ediel_sol  =         0.00000000
  ---------------------------------------------------
  free energy    TOTEN  =      -431.10481460 eV

  energy without entropy =     -431.28192467  energy(sigma->0) =     -431.16385129


--------------------------------------------------------------------------------------------------------




----------------------------------------- Iteration    1(   6)  ---------------------------------------


    POTLOK:  cpu time    2.3456: real time    2.3442
    SETDIJ:  cpu time    0.3899: real time    0.3881
     EDDAV:  cpu time  443.5206: real time  443.1598
       DOS:  cpu time    0.0150: real time    0.0151
    CHARGE:  cpu time   21.0758: real time   21.0589
    MIXING:  cpu time    0.0460: real time    0.0465
    --------------------------------------------
      LOOP:  cpu time  467.3939: real time  467.0134

 eigenvalue-minimisations  : 10804
 total energy-change (2. order) : 0.3256769E+02  (-0.6243597E+02)
 number of electron    1024.0003806 magnetization      51.7785974
 augmentation part      630.6692415 magnetization      45.9185169

 Broyden mixing:
  rms(total) = 0.50762E+01    rms(broyden)= 0.50746E+01
  rms(prec ) = 0.63931E+01
  weight for this iteration     100.00

 eigenvalues of (default mixing * dielectric matrix)
  average eigenvalue GAMMA=   0.5551
  0.5551

 Free energy of the ion-electron system (eV)
  ---------------------------------------------------
  alpha Z        PSCENC =      9415.99145534
  Ewald energy   TEWEN  =   -151163.59208203
  -Hartree energ DENC   =    -59950.19534876
  -exchange      EXHF   =         0.00000000
  -V(xc)+E(xc)   XCENC  =      5583.72657586
  PAW double counting   =    167726.12073251  -176316.87569898
  entropy T*S    EENTRO =        -0.39903159
  eigenvalues    EBANDS =    -19706.60516099
  atomic energy  EATOM  =    224013.29143063
  Solvation  Ediel_sol  =         0.00000000
  ---------------------------------------------------
  free energy    TOTEN  =      -398.53712801 eV

  energy without entropy =     -398.13809642  energy(sigma->0) =     -398.40411748


--------------------------------------------------------------------------------------------------------




----------------------------------------- Iteration    1(   7)  ---------------------------------------


    POTLOK:  cpu time    2.3556: real time    2.3529
    SETDIJ:  cpu time    0.3939: real time    0.3946
     EDDAV:  cpu time  442.8627: real time  442.5010
       DOS:  cpu time    0.0160: real time    0.0151
    CHARGE:  cpu time   22.0876: real time   22.0705
    MIXING:  cpu time    0.0480: real time    0.0483
    --------------------------------------------
      LOOP:  cpu time  467.7659: real time  467.3833

 eigenvalue-minimisations  : 10768
 total energy-change (2. order) : 0.3093950E+02  (-0.1227973E+02)
 number of electron    1024.0003642 magnetization      47.0588181
 augmentation part      606.0576689 magnetization      38.6613800

 Broyden mixing:
  rms(total) = 0.57932E+00    rms(broyden)= 0.57672E+00
  rms(prec ) = 0.69497E+00
  weight for this iteration     100.00

 eigenvalues of (default mixing * dielectric matrix)
  average eigenvalue GAMMA=   0.7391
  0.9003  0.5780

 Free energy of the ion-electron system (eV)
  ---------------------------------------------------
  alpha Z        PSCENC =      9415.99145534
  Ewald energy   TEWEN  =   -151163.59208203
  -Hartree energ DENC   =    -61138.10630474
  -exchange      EXHF   =         0.00000000
  -V(xc)+E(xc)   XCENC  =      5628.36871074
  PAW double counting   =    170317.62336081  -179188.46996810
  entropy T*S    EENTRO =        -0.03251025
  eigenvalues    EBANDS =    -18252.67172248
  atomic energy  EATOM  =    224013.29143063
  Solvation  Ediel_sol  =         0.00000000
  ---------------------------------------------------
  free energy    TOTEN  =      -367.59763007 eV

  energy without entropy =     -367.56511982  energy(sigma->0) =     -367.58679332


--------------------------------------------------------------------------------------------------------




----------------------------------------- Iteration    1(   8)  ---------------------------------------


    POTLOK:  cpu time    2.3706: real time    2.3692
    SETDIJ:  cpu time    0.3949: real time    0.3935
     EDDAV:  cpu time  448.3418: real time  447.9764
       DOS:  cpu time    0.0160: real time    0.0154
    CHARGE:  cpu time   21.5057: real time   21.4882
    MIXING:  cpu time    0.0510: real time    0.0505
    --------------------------------------------
      LOOP:  cpu time  472.6801: real time  472.2942

 eigenvalue-minimisations  : 10944
 total energy-change (2. order) :-0.1003602E+00  (-0.1205106E+00)
 number of electron    1024.0003641 magnetization      43.9620075
 augmentation part      605.7399019 magnetization      36.8241111

 Broyden mixing:
  rms(total) = 0.30024E+00    rms(broyden)= 0.30002E+00
  rms(prec ) = 0.39963E+00
  weight for this iteration     100.00

 eigenvalues of (default mixing * dielectric matrix)
  average eigenvalue GAMMA=   1.1219
  0.5912  0.8784  1.8959

 Free energy of the ion-electron system (eV)
  ---------------------------------------------------
  alpha Z        PSCENC =      9415.99145534
  Ewald energy   TEWEN  =   -151163.59208203
  -Hartree energ DENC   =    -61019.54104395
  -exchange      EXHF   =         0.00000000
  -V(xc)+E(xc)   XCENC  =      5624.91144504
  PAW double counting   =    170877.20814173  -179837.65730742
  entropy T*S    EENTRO =        -0.03027000
  eigenvalues    EBANDS =    -18278.27975962
  atomic energy  EATOM  =    224013.29143063
  Solvation  Ediel_sol  =         0.00000000
  ---------------------------------------------------
  free energy    TOTEN  =      -367.69799028 eV

  energy without entropy =     -367.66772029  energy(sigma->0) =     -367.68790028


--------------------------------------------------------------------------------------------------------




----------------------------------------- Iteration    1(   9)  ---------------------------------------


    POTLOK:  cpu time    2.4156: real time    2.4133
    SETDIJ:  cpu time    0.3959: real time    0.3966
     EDDAV:  cpu time  451.1924: real time  450.8239
       DOS:  cpu time    0.0150: real time    0.0152
    CHARGE:  cpu time   21.2688: real time   21.2501
    MIXING:  cpu time    0.0530: real time    0.0532
    --------------------------------------------
      LOOP:  cpu time  475.3407: real time  474.9532

 eigenvalue-minimisations  : 11090
 total energy-change (2. order) : 0.1247684E+00  (-0.2444230E-01)
 number of electron    1024.0003646 magnetization      44.1921530
 augmentation part      606.4991098 magnetization      37.9455379

 Broyden mixing:
  rms(total) = 0.78884E-01    rms(broyden)= 0.78788E-01
  rms(prec ) = 0.81807E-01
  weight for this iteration     100.00

 eigenvalues of (default mixing * dielectric matrix)
  average eigenvalue GAMMA=   1.0860
  2.1819  0.9350  0.6136  0.6136

 Free energy of the ion-electron system (eV)
  ---------------------------------------------------
  alpha Z        PSCENC =      9415.99145534
  Ewald energy   TEWEN  =   -151163.59208203
  -Hartree energ DENC   =    -60867.92234495
  -exchange      EXHF   =         0.00000000
  -V(xc)+E(xc)   XCENC  =      5620.11138516
  PAW double counting   =    171368.97152547  -180403.09239706
  entropy T*S    EENTRO =        -0.04056506
  eigenvalues    EBANDS =    -18351.29162937
  atomic energy  EATOM  =    224013.29143063
  Solvation  Ediel_sol  =         0.00000000
  ---------------------------------------------------
  free energy    TOTEN  =      -367.57322187 eV

  energy without entropy =     -367.53265681  energy(sigma->0) =     -367.55970018


--------------------------------------------------------------------------------------------------------




----------------------------------------- Iteration    1(  10)  ---------------------------------------


    POTLOK:  cpu time    2.4206: real time    2.4187
    SETDIJ:  cpu time    0.3969: real time    0.3958
     EDDAV:  cpu time  468.6787: real time  468.2959
       DOS:  cpu time    0.0140: real time    0.0144
    CHARGE:  cpu time   20.9608: real time   20.9447
    MIXING:  cpu time    0.0560: real time    0.0560
    --------------------------------------------
      LOOP:  cpu time  492.5281: real time  492.1266

 eigenvalue-minimisations  : 11668
 total energy-change (2. order) :-0.5253375E-02  (-0.1216097E-02)
 number of electron    1024.0003645 magnetization      44.7929321
 augmentation part      606.4852633 magnetization      38.4769839

 Broyden mixing:
  rms(total) = 0.34550E-01    rms(broyden)= 0.34487E-01
  rms(prec ) = 0.35827E-01
  weight for this iteration     100.00

 eigenvalues of (default mixing * dielectric matrix)
  average eigenvalue GAMMA=   1.2449
  2.3339  1.6903  0.9872  0.6066  0.6066

 Free energy of the ion-electron system (eV)
  ---------------------------------------------------
  alpha Z        PSCENC =      9415.99145534
  Ewald energy   TEWEN  =   -151163.59208203
  -Hartree energ DENC   =    -60859.43311588
  -exchange      EXHF   =         0.00000000
  -V(xc)+E(xc)   XCENC  =      5619.88682258
  PAW double counting   =    171458.62558463  -180499.35318131
  entropy T*S    EENTRO =        -0.03976258
  eigenvalues    EBANDS =    -18352.95562664
  atomic energy  EATOM  =    224013.29143063
  Solvation  Ediel_sol  =         0.00000000
  ---------------------------------------------------
  free energy    TOTEN  =      -367.57847525 eV

  energy without entropy =     -367.53871267  energy(sigma->0) =     -367.56522105


--------------------------------------------------------------------------------------------------------




----------------------------------------- Iteration    1(  11)  ---------------------------------------


    POTLOK:  cpu time    2.4406: real time    2.4388
    SETDIJ:  cpu time    0.3979: real time    0.3976
     EDDAV:  cpu time  440.0001: real time  439.6416
       DOS:  cpu time    0.0160: real time    0.0154
    CHARGE:  cpu time   18.3982: real time   18.3836
    MIXING:  cpu time    0.0590: real time    0.0582
    --------------------------------------------
      LOOP:  cpu time  461.3129: real time  460.9362

 eigenvalue-minimisations  : 10916
 total energy-change (2. order) :-0.4127960E-02  (-0.7257128E-03)
 number of electron    1024.0003645 magnetization      44.7921156
 augmentation part      606.3994143 magnetization      38.3156490

 Broyden mixing:
  rms(total) = 0.11134E-01    rms(broyden)= 0.11085E-01
  rms(prec ) = 0.14251E-01
  weight for this iteration     100.00

 eigenvalues of (default mixing * dielectric matrix)
  average eigenvalue GAMMA=   1.1879
  2.4178  1.7361  1.0088  0.7374  0.5895  0.6376

 Free energy of the ion-electron system (eV)
  ---------------------------------------------------
  alpha Z        PSCENC =      9415.99145534
  Ewald energy   TEWEN  =   -151163.59208203
  -Hartree energ DENC   =    -60860.60505259
  -exchange      EXHF   =         0.00000000
  -V(xc)+E(xc)   XCENC  =      5619.92230548
  PAW double counting   =    171561.07116509  -180604.53784793
  entropy T*S    EENTRO =        -0.03863486
  eigenvalues    EBANDS =    -18349.08534234
  atomic energy  EATOM  =    224013.29143063
  Solvation  Ediel_sol  =         0.00000000
  ---------------------------------------------------
  free energy    TOTEN  =      -367.58260321 eV

  energy without entropy =     -367.54396835  energy(sigma->0) =     -367.56972492


--------------------------------------------------------------------------------------------------------




----------------------------------------- Iteration    1(  12)  ---------------------------------------


    POTLOK:  cpu time    2.4416: real time    2.4394
    SETDIJ:  cpu time    0.3939: real time    0.3932
     EDDAV:  cpu time  433.5201: real time  433.1674
       DOS:  cpu time    0.0160: real time    0.0153
    CHARGE:  cpu time   17.7973: real time   17.7835
    MIXING:  cpu time    0.0620: real time    0.0616
    --------------------------------------------
      LOOP:  cpu time  454.2309: real time  453.8614

 eigenvalue-minimisations  : 10932
 total energy-change (2. order) : 0.9155454E-05  (-0.7580235E-04)
 number of electron    1024.0003645 magnetization      44.7825947
 augmentation part      606.4504362 magnetization      38.3038511

 Broyden mixing:
  rms(total) = 0.25685E-02    rms(broyden)= 0.25409E-02
  rms(prec ) = 0.27197E-02
  weight for this iteration     100.00

 eigenvalues of (default mixing * dielectric matrix)
  average eigenvalue GAMMA=   1.1864
  2.4604  1.7082  1.2693  0.9292  0.5915  0.6280  0.7179

 Free energy of the ion-electron system (eV)
  ---------------------------------------------------
  alpha Z        PSCENC =      9415.99145534
  Ewald energy   TEWEN  =   -151163.59208203
  -Hartree energ DENC   =    -60857.41689302
  -exchange      EXHF   =         0.00000000
  -V(xc)+E(xc)   XCENC  =      5619.80015634
  PAW double counting   =    171574.91281901  -180618.21738232
  entropy T*S    EENTRO =        -0.04017084
  eigenvalues    EBANDS =    -18352.31192718
  atomic energy  EATOM  =    224013.29143063
  Solvation  Ediel_sol  =         0.00000000
  ---------------------------------------------------
  free energy    TOTEN  =      -367.58259405 eV

  energy without entropy =     -367.54242321  energy(sigma->0) =     -367.56920377


--------------------------------------------------------------------------------------------------------




----------------------------------------- Iteration    1(  13)  ---------------------------------------


    POTLOK:  cpu time    2.4676: real time    2.4655
    SETDIJ:  cpu time    0.3959: real time    0.3962
     EDDAV:  cpu time  397.5146: real time  397.1905
       DOS:  cpu time    0.0150: real time    0.0153
    CHARGE:  cpu time   17.3814: real time   17.3667
    MIXING:  cpu time    0.0640: real time    0.0640
    --------------------------------------------
      LOOP:  cpu time  417.8395: real time  417.4991

 eigenvalue-minimisations  :  9844
 total energy-change (2. order) :-0.5609851E-05  (-0.3118958E-05)
 number of electron    1024.0003645 magnetization      44.7777496
 augmentation part      606.4589892 magnetization      38.2987291

 Broyden mixing:
  rms(total) = 0.20942E-02    rms(broyden)= 0.20935E-02
  rms(prec ) = 0.27862E-02
  weight for this iteration     100.00

 eigenvalues of (default mixing * dielectric matrix)
  average eigenvalue GAMMA=   1.2384
  2.4767  1.8148  1.8148  1.0290  0.5955  0.6186  0.7787  0.7787

 Free energy of the ion-electron system (eV)
  ---------------------------------------------------
  alpha Z        PSCENC =      9415.99145534
  Ewald energy   TEWEN  =   -151163.59208203
  -Hartree energ DENC   =    -60857.25529882
  -exchange      EXHF   =         0.00000000
  -V(xc)+E(xc)   XCENC  =      5619.79142524
  PAW double counting   =    171583.29183252  -180626.24645075
  entropy T*S    EENTRO =        -0.04041673
  eigenvalues    EBANDS =    -18352.81449506
  atomic energy  EATOM  =    224013.29143063
  Solvation  Ediel_sol  =         0.00000000
  ---------------------------------------------------
  free energy    TOTEN  =      -367.58259966 eV

  energy without entropy =     -367.54218293  energy(sigma->0) =     -367.56912742


--------------------------------------------------------------------------------------------------------




----------------------------------------- Iteration    1(  14)  ---------------------------------------


    POTLOK:  cpu time    2.3386: real time    2.3367
    SETDIJ:  cpu time    0.3899: real time    0.3899
     EDDAV:  cpu time  377.5066: real time  377.1990
       DOS:  cpu time    0.0160: real time    0.0154
    CHARGE:  cpu time   18.2032: real time   18.1894
    MIXING:  cpu time    0.0680: real time    0.0674
    --------------------------------------------
      LOOP:  cpu time  398.5234: real time  398.1988

 eigenvalue-minimisations  :  9224
 total energy-change (2. order) : 0.2433031E-04  (-0.9127072E-06)
 number of electron    1024.0003645 magnetization      44.7776979
 augmentation part      606.4532914 magnetization      38.2988324

 Broyden mixing:
  rms(total) = 0.64308E-03    rms(broyden)= 0.64216E-03
  rms(prec ) = 0.83119E-03
  weight for this iteration     100.00

 eigenvalues of (default mixing * dielectric matrix)
  average eigenvalue GAMMA=   1.2656
  2.5894  2.4123  1.7380  1.1123  0.8417  0.8417  0.5933  0.6307  0.6307

 Free energy of the ion-electron system (eV)
  ---------------------------------------------------
  alpha Z        PSCENC =      9415.99145534
  Ewald energy   TEWEN  =   -151163.59208203
  -Hartree energ DENC   =    -60857.96045700
  -exchange      EXHF   =         0.00000000
  -V(xc)+E(xc)   XCENC  =      5619.81710685
  PAW double counting   =    171591.34872728  -180633.98673448
  entropy T*S    EENTRO =        -0.04038406
  eigenvalues    EBANDS =    -18352.45163786
  atomic energy  EATOM  =    224013.29143063
  Solvation  Ediel_sol  =         0.00000000
  ---------------------------------------------------
  free energy    TOTEN  =      -367.58257533 eV

  energy without entropy =     -367.54219127  energy(sigma->0) =     -367.56911398


--------------------------------------------------------------------------------------------------------




----------------------------------------- Iteration    1(  15)  ---------------------------------------


    POTLOK:  cpu time    2.3446: real time    2.3424
    SETDIJ:  cpu time    0.3919: real time    0.3925
     EDDAV:  cpu time  269.9410: real time  269.7207
       DOS:  cpu time    0.0160: real time    0.0154
    CHARGE:  cpu time   18.0183: real time   18.0046
    MIXING:  cpu time    0.0710: real time    0.0709
    --------------------------------------------
      LOOP:  cpu time  290.7838: real time  290.5475

 eigenvalue-minimisations  :  5594
 total energy-change (2. order) : 0.6811111E-05  (-0.1406297E-06)
 number of electron    1024.0003645 magnetization      44.7785570
 augmentation part      606.4507645 magnetization      38.2997459

 Broyden mixing:
  rms(total) = 0.14475E-03    rms(broyden)= 0.14332E-03
  rms(prec ) = 0.14474E-03
  weight for this iteration     100.00

 eigenvalues of (default mixing * dielectric matrix)
  average eigenvalue GAMMA=   1.2420
  2.6489  2.4403  1.6998  1.2179  0.9117  0.9117  0.7415  0.5937  0.6222  0.6326

 Free energy of the ion-electron system (eV)
  ---------------------------------------------------
  alpha Z        PSCENC =      9415.99145534
  Ewald energy   TEWEN  =   -151163.59208203
  -Hartree energ DENC   =    -60858.20554198
  -exchange      EXHF   =         0.00000000
  -V(xc)+E(xc)   XCENC  =      5619.82637123
  PAW double counting   =    171593.26168412  -180635.81653101
  entropy T*S    EENTRO =        -0.04031501
  eigenvalues    EBANDS =    -18352.29903980
  atomic energy  EATOM  =    224013.29143063
  Solvation  Ediel_sol  =         0.00000000
  ---------------------------------------------------
  free energy    TOTEN  =      -367.58256852 eV

  energy without entropy =     -367.54225350  energy(sigma->0) =     -367.56913018


--------------------------------------------------------------------------------------------------------




----------------------------------------- Iteration    1(  16)  ---------------------------------------


    POTLOK:  cpu time    2.3226: real time    2.3205
    SETDIJ:  cpu time    0.3799: real time    0.3809
     EDDAV:  cpu time  264.0409: real time  263.8254
       DOS:  cpu time    0.0150: real time    0.0152
    --------------------------------------------
      LOOP:  cpu time  266.7604: real time  266.5439

 eigenvalue-minimisations  :  5404
 total energy-change (2. order) :-0.6955815E-07  (-0.1934921E-07)
 number of electron    1024.0003645 magnetization      44.7785570
 augmentation part      606.4507645 magnetization      38.2997459

 Free energy of the ion-electron system (eV)
  ---------------------------------------------------
  alpha Z        PSCENC =      9415.99145534
  Ewald energy   TEWEN  =   -151163.59208203
  -Hartree energ DENC   =    -60858.21477088
  -exchange      EXHF   =         0.00000000
  -V(xc)+E(xc)   XCENC  =      5619.82699541
  PAW double counting   =    171593.13161075  -180635.68197928
  entropy T*S    EENTRO =        -0.04029160
  eigenvalues    EBANDS =    -18352.29493691
  atomic energy  EATOM  =    224013.29143063
  Solvation  Ediel_sol  =         0.00000000
  ---------------------------------------------------
  free energy    TOTEN  =      -367.58256859 eV

  energy without entropy =     -367.54227699  energy(sigma->0) =     -367.56913805


--------------------------------------------------------------------------------------------------------




 average (electrostatic) potential at core
  the test charge radii are     0.8614
  (the norm of the test charge is              1.0000)
       1 -79.9429       2 -79.9429       3 -79.9429       4 -79.9429       5 -79.9429
       6 -79.9429       7 -79.9429       8 -79.9429       9 -79.9429      10 -79.9429
      11 -79.9429      12 -79.9429      13 -79.9429      14 -79.9429      15 -79.9429
      16 -79.9429      17 -79.9429      18 -79.9429      19 -79.9429      20 -79.9429
      21 -79.9429      22 -79.9429      23 -79.9429      24 -79.9429      25 -79.9429
      26 -79.9429      27 -79.9429      28 -79.9429      29 -79.9429      30 -79.9429
      31 -79.9429      32 -79.9429      33 -79.9429      34 -79.9429      35 -79.9429
      36 -79.9429      37 -79.9429      38 -79.9429      39 -79.9429      40 -79.9429
      41 -79.9429      42 -79.9429      43 -79.9429      44 -79.9429      45 -79.9429
      46 -79.9429      47 -79.9429      48 -79.9429      49 -79.9429      50 -79.9429
      51 -79.9429      52 -79.9429      53 -79.9429      54 -79.9429      55 -79.9429
      56 -79.9429      57 -79.9429      58 -79.9429      59 -79.9429      60 -79.9429
      61 -79.9429      62 -79.9429      63 -79.9429      64 -79.9429
 
 
 
 E-fermi :   7.2548     XC(G=0): -13.4579     alpha+bet :-14.1406


 spin component 1

 k-point     1 :       0.0000    0.0000    0.0000
  band No.  band energies     occupation 
      1     -56.7448      1.00000
      2     -56.7447      1.00000
      3     -56.7447      1.00000
      4     -56.7447      1.00000
      5     -56.7409      1.00000
      6     -56.7409      1.00000
      7     -56.7409      1.00000
      8     -56.7201      1.00000
      9     -56.7201      1.00000
     10     -56.7201      1.00000
     11     -56.7201      1.00000
     12     -56.7201      1.00000
     13     -56.7201      1.00000
     14     -56.7201      1.00000
     15     -56.7201      1.00000
     16     -56.7201      1.00000
     17     -56.7201      1.00000
     18     -56.7201      1.00000
     19     -56.7201      1.00000
     20     -56.7201      1.00000
     21     -56.7201      1.00000
     22     -56.7201      1.00000
     23     -56.7201      1.00000
     24     -56.7201      1.00000
     25     -56.7201      1.00000
     26     -56.7201      1.00000
     27     -56.7201      1.00000
     28     -56.7201      1.00000
     29     -56.7201      1.00000
     30     -56.7201      1.00000
     31     -56.7201      1.00000
     32     -56.6957      1.00000
     33     -56.6957      1.00000
     34     -56.6957      1.00000
     35     -56.6957      1.00000
     36     -56.6957      1.00000
     37     -56.6957      1.00000
     38     -56.6957      1.00000
     39     -56.6957      1.00000
     40     -56.6957      1.00000
     41     -56.6957      1.00000
     42     -56.6957      1.00000
     43     -56.6957      1.00000
     44     -56.6954      1.00000
     45     -56.6954      1.00000
     46     -56.6954      1.00000
     47     -56.6954      1.00000
     48     -56.6954      1.00000
     49     -56.6954      1.00000
     50     -56.6954      1.00000
     51     -56.6954      1.00000
     52     -56.6954      1.00000
     53     -56.6954      1.00000
     54     -56.6954      1.00000
     55     -56.6954      1.00000
     56     -56.6607      1.00000
     57     -56.6607      1.00000
     58     -56.6607      1.00000
     59     -56.6607      1.00000
     60     -56.6607      1.00000
     61     -56.6607      1.00000
     62     -56.6607      1.00000
     63     -56.6607      1.00000
     64     -56.6520      1.00000
     65     -56.6520      1.00000
     66     -56.6520      1.00000
     67     -56.6520      1.00000
     68     -56.6520      1.00000
     69     -56.6520      1.00000
     70     -56.6426      1.00000
     71     -56.6426      1.00000
     72     -56.6426      1.00000
     73     -56.6426      1.00000
     74     -56.6426      1.00000
     75     -56.6426      1.00000
     76     -56.6426      1.00000
     77     -56.6426      1.00000
     78     -56.6426      1.00000
     79     -56.6426      1.00000
     80     -56.6426      1.00000
     81     -56.6426      1.00000
     82     -56.6426      1.00000
     83     -56.6426      1.00000
     84     -56.6426      1.00000
     85     -56.6426      1.00000
     86     -56.6426      1.00000
     87     -56.6426      1.00000
     88     -56.6426      1.00000
     89     -56.6426      1.00000
     90     -56.6426      1.00000
     91     -56.6426      1.00000
     92     -56.6426      1.00000
     93     -56.6426      1.00000
     94     -56.6424      1.00000
     95     -56.6424      1.00000
     96     -56.6424      1.00000
     97     -56.6424      1.00000
     98     -56.6424      1.00000
     99     -56.6424      1.00000
    100     -56.6424      1.00000
    101     -56.6424      1.00000
    102     -56.6424      1.00000
    103     -56.6424      1.00000
    104     -56.6424      1.00000
    105     -56.6424      1.00000
    106     -56.6422      1.00000
    107     -56.6422      1.00000
    108     -56.6422      1.00000
    109     -56.6422      1.00000
    110     -56.6422      1.00000
    111     -56.6422      1.00000
    112     -56.6396      1.00000
    113     -56.6396      1.00000
    114     -56.6396      1.00000
    115     -56.6396      1.00000
    116     -56.6396      1.00000
    117     -56.6396      1.00000
    118     -56.6139      1.00000
    119     -56.6139      1.00000
    120     -56.6139      1.00000
    121     -56.6139      1.00000
    122     -56.6139      1.00000
    123     -56.6139      1.00000
    124     -56.6139      1.00000
    125     -56.6139      1.00000
    126     -56.6139      1.00000
    127     -56.6139      1.00000
    128     -56.6139      1.00000
    129     -56.6139      1.00000
    130     -56.6139      1.00000
    131     -56.6139      1.00000
    132     -56.6139      1.00000
    133     -56.6139      1.00000
    134     -56.6139      1.00000
    135     -56.6139      1.00000
    136     -56.6139      1.00000
    137     -56.6139      1.00000
    138     -56.6139      1.00000
    139     -56.6139      1.00000
    140     -56.6139      1.00000
    141     -56.6139      1.00000
    142     -56.5992      1.00000
    143     -56.5992      1.00000
    144     -56.5992      1.00000
    145     -56.5992      1.00000
    146     -56.5992      1.00000
    147     -56.5992      1.00000
    148     -56.5992      1.00000
    149     -56.5992      1.00000
    150     -56.5992      1.00000
    151     -56.5992      1.00000
    152     -56.5992      1.00000
    153     -56.5992      1.00000
    154     -56.5935      1.00000
    155     -56.5935      1.00000
    156     -56.5935      1.00000
    157     -56.5935      1.00000
    158     -56.5935      1.00000
    159     -56.5935      1.00000
    160     -56.5935      1.00000
    161     -56.5935      1.00000
    162     -56.5869      1.00000
    163     -56.5869      1.00000
    164     -56.5869      1.00000
    165     -56.5869      1.00000
    166     -56.5869      1.00000
    167     -56.5869      1.00000
    168     -56.5869      1.00000
    169     -56.5869      1.00000
    170     -56.5869      1.00000
    171     -56.5869      1.00000
    172     -56.5869      1.00000
    173     -56.5869      1.00000
    174     -56.5794      1.00000
    175     -56.5794      1.00000
    176     -56.5794      1.00000
    177     -56.5794      1.00000
    178     -56.5794      1.00000
    179     -56.5794      1.00000
    180     -56.5794      1.00000
    181     -56.5794      1.00000
    182     -56.5794      1.00000
    183     -56.5794      1.00000
    184     -56.5794      1.00000
    185     -56.5794      1.00000
    186     -56.5794      1.00000
    187     -56.5794      1.00000
    188     -56.5794      1.00000
    189     -56.5794      1.00000
    190     -56.5691      1.00000
    191     -56.5691      1.00000
    192     -56.5691      1.00000
    193      -1.4594      1.00000
    194       0.6985      1.00000
    195       0.6985      1.00000
    196       0.6985      1.00000
    197       0.6985      1.00000
    198       0.6985      1.00000
    199       0.6985      1.00000
    200       0.6985      1.00000
    201       0.6985      1.00000
    202       1.3394      1.00000
    203       1.3394      1.00000
    204       1.3394      1.00000
    205       1.3394      1.00000
    206       1.3394      1.00000
    207       1.3394      1.00000
    208       2.6291      1.00000
    209       2.6291      1.00000
    210       2.6291      1.00000
    211       2.6291      1.00000
    212       2.8300      1.00000
    213       2.8300      1.00000
    214       2.8300      1.00000
    215       3.1816      1.00000
    216       3.1816      1.00000
    217       3.1816      1.00000
    218       3.1816      1.00000
    219       3.1816      1.00000
    220       3.1816      1.00000
    221       3.1817      1.00000
    222       3.1817      1.00000
    223       3.1817      1.00000
    224       3.1817      1.00000
    225       3.1817      1.00000
    226       3.1817      1.00000
    227       3.2552      1.00000
    228       3.2552      1.00000
    229       3.2552      1.00000
    230       3.3414      1.00000
    231       3.3414      1.00000
    232       3.3414      1.00000
    233       3.3414      1.00000
    234       3.3414      1.00000
    235       3.3414      1.00000
    236       3.3414      1.00000
    237       3.3414      1.00000
    238       3.3414      1.00000
    239       3.3414      1.00000
    240       3.3414      1.00000
    241       3.3414      1.00000
    242       3.3414      1.00000
    243       3.3414      1.00000
    244       3.3414      1.00000
    245       3.3414      1.00000
    246       3.3414      1.00000
    247       3.3414      1.00000
    248       3.3414      1.00000
    249       3.3414      1.00000
    250       3.3414      1.00000
    251       3.3414      1.00000
    252       3.3414      1.00000
    253       3.3414      1.00000
    254       3.6624      1.00000
    255       3.6624      1.00000
    256       3.6624      1.00000
    257       3.6624      1.00000
    258       3.6624      1.00000
    259       3.6624      1.00000
    260       3.9553      1.00000
    261       3.9553      1.00000
    262       3.9553      1.00000
    263       3.9553      1.00000
    264       3.9553      1.00000
    265       3.9553      1.00000
    266       3.9553      1.00000
    267       3.9553      1.00000
    268       3.9553      1.00000
    269       3.9553      1.00000
    270       3.9553      1.00000
    271       3.9553      1.00000
    272       3.9554      1.00000
    273       3.9554      1.00000
    274       3.9554      1.00000
    275       3.9554      1.00000
    276       3.9554      1.00000
    277       3.9554      1.00000
    278       3.9554      1.00000
    279       3.9554      1.00000
    280       3.9554      1.00000
    281       3.9554      1.00000
    282       3.9554      1.00000
    283       3.9554      1.00000
    284       4.0418      1.00000
    285       4.0418      1.00000
    286       4.0418      1.00000
    287       4.0418      1.00000
    288       4.0418      1.00000
    289       4.0418      1.00000
    290       4.3017      1.00000
    291       4.3017      1.00000
    292       4.3017      1.00000
    293       4.3017      1.00000
    294       4.3017      1.00000
    295       4.3017      1.00000
    296       4.3017      1.00000
    297       4.3017      1.00000
    298       4.3017      1.00000
    299       4.3017      1.00000
    300       4.3017      1.00000
    301       4.3017      1.00000
    302       4.3032      1.00000
    303       4.3032      1.00000
    304       4.3032      1.00000
    305       4.3032      1.00000
    306       4.3032      1.00000
    307       4.3032      1.00000
    308       4.3032      1.00000
    309       4.3032      1.00000
    310       4.3032      1.00000
    311       4.3032      1.00000
    312       4.3032      1.00000
    313       4.3032      1.00000
    314       4.5978      1.00000
    315       4.5978      1.00000
    316       4.5978      1.00000
    317       4.5978      1.00000
    318       4.5978      1.00000
    319       4.5978      1.00000
    320       4.5978      1.00000
    321       4.5978      1.00000
    322       4.5995      1.00000
    323       4.5995      1.00000
[...]
      7.155750  3.577875  3.577875     0.104083    0.067320   -0.016118  
      8.944688  5.366812  3.577875     0.104083    0.067320   -0.016118  
      5.366812  0.000000  5.366812     0.104083    0.067320   -0.016118  
      7.155750  1.788938  5.366812     0.104083    0.067320   -0.016118  
      8.944688  3.577875  5.366812     0.104083    0.067320   -0.016118  
     10.733625  5.366812  5.366812     0.104083    0.067320   -0.016118  
      0.000000  1.788938  1.788938     0.104083    0.067320   -0.016118  
      1.788938  3.577875  1.788938     0.104083    0.067320   -0.016118  
      3.577875  5.366812  1.788938     0.104083    0.067320   -0.016118  
      5.366812  7.155750  1.788938     0.104083    0.067320   -0.016118  
      1.788938  1.788938  3.577875     0.104083    0.067320   -0.016118  
      3.577875  3.577875  3.577875     0.104083    0.067320   -0.016118  
      5.366812  5.366812  3.577875     0.104083    0.067320   -0.016118  
      7.155750  7.155750  3.577875     0.104083    0.067320   -0.016118  
      3.577875  1.788938  5.366812     0.104083    0.067320   -0.016118  
      5.366812  3.577875  5.366812     0.104083    0.067320   -0.016118  
      7.155750  5.366812  5.366812     0.104083    0.067320   -0.016118  
      8.944688  7.155750  5.366812     0.104083    0.067320   -0.016118  
      5.366812  1.788938  7.155750     0.104083    0.067320   -0.016118  
      7.155750  3.577875  7.155750     0.104083    0.067320   -0.016118  
      8.944688  5.366812  7.155750     0.104083    0.067320   -0.016118  
     10.733625  7.155750  7.155750     0.104083    0.067320   -0.016118  
      0.000000  3.577875  3.577875     0.104083    0.067320   -0.016118  
      1.788938  5.366812  3.577875     0.104083    0.067320   -0.016118  
      3.577875  7.155750  3.577875     0.104083    0.067320   -0.016118  
      5.366812  8.944688  3.577875     0.104083    0.067320   -0.016118  
      1.788938  3.577875  5.366812     0.104083    0.067320   -0.016118  
      3.577875  5.366812  5.366812     0.104083    0.067320   -0.016118  
      5.366812  7.155750  5.366812     0.104083    0.067320   -0.016118  
      7.155750  8.944688  5.366812     0.104083    0.067320   -0.016118  
      3.577875  3.577875  7.155750     0.104083    0.067320   -0.016118  
      5.366812  5.366812  7.155750     0.104083    0.067320   -0.016118  
      7.155750  7.155750  7.155750     0.104083    0.067320   -0.016118  
      8.944688  8.944688  7.155750     0.104083    0.067320   -0.016118  
      5.366812  3.577875  8.944688     0.104083    0.067320   -0.016118  
      7.155750  5.366812  8.944688     0.104083    0.067320   -0.016118  
      8.944688  7.155750  8.944688     0.104083    0.067320   -0.016118  
     10.733625  8.944688  8.944688     0.104083    0.067320   -0.016118  
      0.000000  5.366812  5.366812     0.104083    0.067320   -0.016118  
      1.788938  7.155750  5.366812     0.104083    0.067320   -0.016118  
      3.577875  8.944688  5.366812     0.104083    0.067320   -0.016118  
      5.366812 10.733625  5.366812     0.104083    0.067320   -0.016118  
      1.788938  5.366812  7.155750     0.104083    0.067320   -0.016118  
      3.577875  7.155750  7.155750     0.104083    0.067320   -0.016118  
      5.366812  8.944688  7.155750     0.104083    0.067320   -0.016118  
      7.155750 10.733625  7.155750     0.104083    0.067320   -0.016118  
      3.577875  5.366812  8.944688     0.104083    0.067320   -0.016118  
      5.366812  7.155750  8.944688     0.104083    0.067320   -0.016118  
      7.155750  8.944688  8.944688     0.104083    0.067320   -0.016118  
      8.944688 10.733625  8.944688     0.104083    0.067320   -0.016118  
      5.366812  5.366812 10.733625     0.104083    0.067320   -0.016118  
      7.155750  7.155750 10.733625     0.104083    0.067320   -0.016118  
      8.944688  8.944688 10.733625     0.104083    0.067320   -0.016118  
     10.733625 10.733625 10.733625     0.104083    0.067320   -0.016118  
 
 192 f  =    0.000001 THz     0.000006 2PiTHz    0.000032 cm-1     0.000004 meV
             X         Y         Z           dx          dy          dz
      0.000000  0.000000  0.000000    -0.066279    0.105315    0.011867  
      1.788938  1.788938  0.000000    -0.066279    0.105315    0.011867  
      3.577875  3.577875  0.000000    -0.066279    0.105315    0.011867  
      5.366812  5.366812  0.000000    -0.066279    0.105315    0.011867  
      1.788938  0.000000  1.788938    -0.066279    0.105315    0.011867  
      3.577875  1.788938  1.788938    -0.066279    0.105315    0.011867  
      5.366812  3.577875  1.788938    -0.066279    0.105315    0.011867  
      7.155750  5.366812  1.788938    -0.066279    0.105315    0.011867  
      3.577875  0.000000  3.577875    -0.066279    0.105315    0.011867  
      5.366812  1.788938  3.577875    -0.066279    0.105315    0.011867  
      7.155750  3.577875  3.577875    -0.066279    0.105315    0.011867  
      8.944688  5.366812  3.577875    -0.066279    0.105315    0.011867  
      5.366812  0.000000  5.366812    -0.066279    0.105315    0.011867  
      7.155750  1.788938  5.366812    -0.066279    0.105315    0.011867  
      8.944688  3.577875  5.366812    -0.066279    0.105315    0.011867  
     10.733625  5.366812  5.366812    -0.066279    0.105315    0.011867  
      0.000000  1.788938  1.788938    -0.066279    0.105315    0.011867  
      1.788938  3.577875  1.788938    -0.066279    0.105315    0.011867  
      3.577875  5.366812  1.788938    -0.066279    0.105315    0.011867  
      5.366812  7.155750  1.788938    -0.066279    0.105315    0.011867  
      1.788938  1.788938  3.577875    -0.066279    0.105315    0.011867  
      3.577875  3.577875  3.577875    -0.066279    0.105315    0.011867  
      5.366812  5.366812  3.577875    -0.066279    0.105315    0.011867  
      7.155750  7.155750  3.577875    -0.066279    0.105315    0.011867  
      3.577875  1.788938  5.366812    -0.066279    0.105315    0.011867  
      5.366812  3.577875  5.366812    -0.066279    0.105315    0.011867  
      7.155750  5.366812  5.366812    -0.066279    0.105315    0.011867  
      8.944688  7.155750  5.366812    -0.066279    0.105315    0.011867  
      5.366812  1.788938  7.155750    -0.066279    0.105315    0.011867  
      7.155750  3.577875  7.155750    -0.066279    0.105315    0.011867  
      8.944688  5.366812  7.155750    -0.066279    0.105315    0.011867  
     10.733625  7.155750  7.155750    -0.066279    0.105315    0.011867  
      0.000000  3.577875  3.577875    -0.066279    0.105315    0.011867  
      1.788938  5.366812  3.577875    -0.066279    0.105315    0.011867  
      3.577875  7.155750  3.577875    -0.066279    0.105315    0.011867  
      5.366812  8.944688  3.577875    -0.066279    0.105315    0.011867  
      1.788938  3.577875  5.366812    -0.066279    0.105315    0.011867  
      3.577875  5.366812  5.366812    -0.066279    0.105315    0.011867  
      5.366812  7.155750  5.366812    -0.066279    0.105315    0.011867  
      7.155750  8.944688  5.366812    -0.066279    0.105315    0.011867  
      3.577875  3.577875  7.155750    -0.066279    0.105315    0.011867  
      5.366812  5.366812  7.155750    -0.066279    0.105315    0.011867  
      7.155750  7.155750  7.155750    -0.066279    0.105315    0.011867  
      8.944688  8.944688  7.155750    -0.066279    0.105315    0.011867  
      5.366812  3.577875  8.944688    -0.066279    0.105315    0.011867  
      7.155750  5.366812  8.944688    -0.066279    0.105315    0.011867  
      8.944688  7.155750  8.944688    -0.066279    0.105315    0.011867  
     10.733625  8.944688  8.944688    -0.066279    0.105315    0.011867  
      0.000000  5.366812  5.366812    -0.066279    0.105315    0.011867  
      1.788938  7.155750  5.366812    -0.066279    0.105315    0.011867  
      3.577875  8.944688  5.366812    -0.066279    0.105315    0.011867  
      5.366812 10.733625  5.366812    -0.066279    0.105315    0.011867  
      1.788938  5.366812  7.155750    -0.066279    0.105315    0.011867  
      3.577875  7.155750  7.155750    -0.066279    0.105315    0.011867  
      5.366812  8.944688  7.155750    -0.066279    0.105315    0.011867  
      7.155750 10.733625  7.155750    -0.066279    0.105315    0.011867  
      3.577875  5.366812  8.944688    -0.066279    0.105315    0.011867  
      5.366812  7.155750  8.944688    -0.066279    0.105315    0.011867  
      7.155750  8.944688  8.944688    -0.066279    0.105315    0.011867  
      8.944688 10.733625  8.944688    -0.066279    0.105315    0.011867  
      5.366812  5.366812 10.733625    -0.066279    0.105315    0.011867  
      7.155750  7.155750 10.733625    -0.066279    0.105315    0.011867  
      8.944688  8.944688 10.733625    -0.066279    0.105315    0.011867  
     10.733625 10.733625 10.733625    -0.066279    0.105315    0.011867  
 

 ELASTIC MODULI CONTR FROM IONIC RELAXATION (kBar)
 Direction    XX          YY          ZZ          XY          YZ          ZX
 --------------------------------------------------------------------------------
 XX           0.0000     -0.0000      0.0000     -0.0000      0.0000     -0.0000
 YY          -0.0000      0.0000      0.0000     -0.0000     -0.0000      0.0000
 ZZ          -0.0000     -0.0000      0.0000      0.0000     -0.0000     -0.0000
 XY          -0.0000     -0.0000      0.0000      0.0000      0.0000      0.0000
 YZ           0.0000     -0.0000      0.0000      0.0000      0.0000     -0.0000
 ZX          -0.0000      0.0000     -0.0000      0.0000     -0.0000      0.0000
 --------------------------------------------------------------------------------



--------------------------------------------------------------------------------------------------------


  LATTYP: Found a face centered cubic cell.
 ALAT       =    14.3115000000
  
  Lattice vectors:
  
 A1 = (   0.0000000000,   7.1557500000,   7.1557500000)
 A2 = (   7.1557500000,   0.0000000000,   7.1557500000)
 A3 = (   7.1557500000,   7.1557500000,   0.0000000000)


Analysis of symmetry for initial positions (statically):
=====================================================================
 Subroutine PRICEL returns following result:
 
  LATTYP: Found a face centered cubic cell.
 ALAT       =     3.5778750000
  
  Lattice vectors:
  
 A1 = (   0.0000000000,   1.7889375000,   1.7889375000)
 A2 = (   1.7889375000,   0.0000000000,   1.7889375000)
 A3 = (   1.7889375000,   1.7889375000,   0.0000000000)
 
  64 primitive cells build up your supercell.
 

 Routine SETGRP: Setting up the symmetry group for a 
 face centered cubic supercell.


 Subroutine GETGRP returns: Found 48 space group operations
 (whereof 48 operations were pure point group operations)
 out of a pool of 48 trial point group operations.


The static configuration has the point symmetry O_h .


Analysis of symmetry for dynamics (positions and initial velocities):
=====================================================================
 Subroutine PRICEL returns following result:
 
  LATTYP: Found a face centered cubic cell.
 ALAT       =     3.5778750000
  
  Lattice vectors:
  
 A1 = (   0.0000000000,   1.7889375000,   1.7889375000)
 A2 = (   1.7889375000,   0.0000000000,   1.7889375000)
 A3 = (   1.7889375000,   1.7889375000,   0.0000000000)
 
  64 primitive cells build up your supercell.
 

 Routine SETGRP: Setting up the symmetry group for a 
 face centered cubic supercell.


 Subroutine GETGRP returns: Found 48 space group operations
 (whereof 48 operations were pure point group operations)
 out of a pool of 48 trial point group operations.


The dynamic configuration has the point symmetry O_h .


Analysis of structural, dynamic, and magnetic symmetry:
=====================================================================
 Subroutine PRICEL returns following result:
 
  LATTYP: Found a face centered cubic cell.
 ALAT       =     3.5778750000
  
  Lattice vectors:
  
 A1 = (   0.0000000000,   1.7889375000,   1.7889375000)
 A2 = (   1.7889375000,   0.0000000000,   1.7889375000)
 A3 = (   1.7889375000,   1.7889375000,   0.0000000000)
 
  64 primitive cells build up your supercell.
 

 Routine SETGRP: Setting up the symmetry group for a 
 face centered cubic supercell.


 Subroutine GETGRP returns: Found 48 space group operations
 (whereof 48 operations were pure point group operations)
 out of a pool of 48 trial point group operations.


The magnetic configuration has the point symmetry O_h .


 Subroutine INISYM returns: Found 48 space group operations
 (whereof 48 operations are pure point group operations),
 and found    64 'primitive' translations

 
 KPOINTS: Zr 15x15x15                             

Automatic generation of k-mesh.
Space group operators:
 irot       det(A)        alpha          n_x          n_y          n_z        tau_x        tau_y        tau_z
    1     1.000000     0.000000     1.000000     0.000000     0.000000     0.000000     0.000000     0.000000
    2    -1.000000     0.000000     1.000000     0.000000     0.000000     0.000000     0.000000     0.000000
    3     1.000000   120.000000    -0.577350    -0.577350    -0.577350     0.000000     0.000000     0.000000
    4    -1.000000   120.000000    -0.577350    -0.577350    -0.577350     0.000000     0.000000     0.000000
    5     1.000000   120.000000     0.577350     0.577350     0.577350     0.000000     0.000000     0.000000
    6    -1.000000   120.000000     0.577350     0.577350     0.577350     0.000000     0.000000     0.000000
    7     1.000000    90.000000     0.000000     0.000000    -1.000000     0.000000     0.000000     0.000000
    8    -1.000000    90.000000     0.000000     0.000000    -1.000000     0.000000     0.000000     0.000000
    9     1.000000   180.000000     0.000000     0.707107     0.707107     0.000000     0.000000     0.000000
   10    -1.000000   180.000000     0.000000     0.707107     0.707107     0.000000     0.000000     0.000000
   11     1.000000    90.000000     0.000000     1.000000     0.000000     0.000000     0.000000     0.000000
   12    -1.000000    90.000000     0.000000     1.000000     0.000000     0.000000     0.000000     0.000000
   13     1.000000   180.000000     0.000000     0.000000     1.000000     0.000000     0.000000     0.000000
   14    -1.000000   180.000000     0.000000     0.000000     1.000000     0.000000     0.000000     0.000000
   15     1.000000   120.000000    -0.577350     0.577350     0.577350     0.000000     0.000000     0.000000
   16    -1.000000   120.000000    -0.577350     0.577350     0.577350     0.000000     0.000000     0.000000
   17     1.000000   120.000000    -0.577350     0.577350    -0.577350     0.000000     0.000000     0.000000
   18    -1.000000   120.000000    -0.577350     0.577350    -0.577350     0.000000     0.000000     0.000000
   19     1.000000    90.000000     0.000000     0.000000     1.000000     0.000000     0.000000     0.000000
   20    -1.000000    90.000000     0.000000     0.000000     1.000000     0.000000     0.000000     0.000000
   21     1.000000    90.000000    -1.000000     0.000000     0.000000     0.000000     0.000000     0.000000
   22    -1.000000    90.000000    -1.000000     0.000000     0.000000     0.000000     0.000000     0.000000
   23     1.000000   180.000000     0.707107     0.000000     0.707107     0.000000     0.000000     0.000000
   24    -1.000000   180.000000     0.707107     0.000000     0.707107     0.000000     0.000000     0.000000
   25     1.000000   120.000000     0.577350    -0.577350     0.577350     0.000000     0.000000     0.000000
   26    -1.000000   120.000000     0.577350    -0.577350     0.577350     0.000000     0.000000     0.000000
   27     1.000000   120.000000    -0.577350    -0.577350     0.577350     0.000000     0.000000     0.000000
   28    -1.000000   120.000000    -0.577350    -0.577350     0.577350     0.000000     0.000000     0.000000
   29     1.000000   180.000000     1.000000     0.000000     0.000000     0.000000     0.000000     0.000000
   30    -1.000000   180.000000     1.000000     0.000000     0.000000     0.000000     0.000000     0.000000
   31     1.000000    90.000000     0.000000    -1.000000     0.000000     0.000000     0.000000     0.000000
   32    -1.000000    90.000000     0.000000    -1.000000     0.000000     0.000000     0.000000     0.000000
   33     1.000000   180.000000     0.707107     0.707107     0.000000     0.000000     0.000000     0.000000
   34    -1.000000   180.000000     0.707107     0.707107     0.000000     0.000000     0.000000     0.000000
   35     1.000000    90.000000     1.000000     0.000000     0.000000     0.000000     0.000000     0.000000
   36    -1.000000    90.000000     1.000000     0.000000     0.000000     0.000000     0.000000     0.000000
   37     1.000000   120.000000     0.577350    -0.577350    -0.577350     0.000000     0.000000     0.000000
   38    -1.000000   120.000000     0.577350    -0.577350    -0.577350     0.000000     0.000000     0.000000
   39     1.000000   180.000000     0.000000     1.000000     0.000000     0.000000     0.000000     0.000000
   40    -1.000000   180.000000     0.000000     1.000000     0.000000     0.000000     0.000000     0.000000
   41     1.000000   120.000000     0.577350     0.577350    -0.577350     0.000000     0.000000     0.000000
   42    -1.000000   120.000000     0.577350     0.577350    -0.577350     0.000000     0.000000     0.000000
   43     1.000000   180.000000     0.000000    -0.707107     0.707107     0.000000     0.000000     0.000000
   44    -1.000000   180.000000     0.000000    -0.707107     0.707107     0.000000     0.000000     0.000000
   45     1.000000   180.000000     0.707107    -0.707107     0.000000     0.000000     0.000000     0.000000
   46    -1.000000   180.000000     0.707107    -0.707107     0.000000     0.000000     0.000000     0.000000
   47     1.000000   180.000000     0.707107     0.000000    -0.707107     0.000000     0.000000     0.000000
   48    -1.000000   180.000000     0.707107     0.000000    -0.707107     0.000000     0.000000     0.000000
 
 Subroutine IBZKPT returns following result:
 ===========================================
 
 Found      4 irreducible k-points:
 
 Following reciprocal coordinates:
            Coordinates               Weight
  0.000000  0.000000  0.000000      1.000000
  0.333333  0.000000  0.000000      8.000000
  0.333333  0.333333  0.000000      6.000000
 -0.333333  0.333333  0.000000     12.000000
 
 Following cartesian coordinates:
            Coordinates               Weight
  0.000000  0.000000  0.000000      1.000000
 -0.023291  0.023291  0.023291      8.000000
  0.000000  0.000000  0.046583      6.000000
  0.046583 -0.046583  0.000000     12.000000
 
 writing wavefunctions
     LOOP+:  cpu time 9859.3611: real time10128.4335
    4ORBIT:  cpu time    0.0000: real time    0.0000

 total amount of memory used by VASP on root node  1397299. kBytes
========================================================================

   base      :      30000. kBytes
   nonlr-proj:      48671. kBytes
   fftplans  :      72476. kBytes
   grid      :     173932. kBytes
   one-center:       1990. kBytes
   wavefun   :    1070230. kBytes
 
  
  
 General timing and accounting informations for this job:
 ========================================================
  
                  Total CPU time used (sec):    51415.770
                            User time (sec):    51401.186
                          System time (sec):       14.583
                         Elapsed time (sec):   105803.419
  
                   Maximum memory used (kb):     3547264.
                   Average memory used (kb):           0.
  
                          Minor page faults:       352395
                          Major page faults:           26
                 Voluntary context switches:          787
