<?xml version="1.0" encoding="ISO-8859-1"?>
<modeling>
 <generator>
  <i name="program" type="string">vasp </i>
  <i name="version" type="string">5.4.1  </i>
  <i name="subversion" type="string">05Feb16 (build Oct 12 2016 17:31:35) complex                          parallel </i>
  <i name="platform" type="string">IFC91_ompi </i>
  <i name="date" type="string">2020 09 07 </i>
  <i name="time" type="string">13:57:48 </i>
 </generator>
 <incar>
  <i type="string" name="SYSTEM"> phonon of Zr bcc - omiga</i>
  <i type="string" name="PREC">a</i>
  <i type="int" name="ISPIN">     2</i>
  <i type="int" name="IBRION">     6</i>
  <i type="int" name="NFREE">     4</i>
  <i name="EDIFF">      0.00000100</i>
  <i type="int" name="NSW">     1</i>
  <v name="MAGMOM">      1.00000000      1.00000000      1.00000000      1.00000000      1.00000000      1.00000000      1.00000000      1.00000000      1.00000000      1.00000000      1.00000000      1.00000000      1.00000000      1.00000000      1.00000000      1.00000000      1.00000000      1.00000000      1.00000000      1.00000000
      1.00000000      1.00000000      1.00000000      1.00000000      1.00000000      1.00000000      1.00000000      1.00000000      1.00000000      1.00000000      1.00000000      1.00000000      1.00000000      1.00000000      1.00000000      1.00000000      1.00000000      1.00000000      1.00000000      1.00000000
      1.00000000      1.00000000      1.00000000      1.00000000      1.00000000      1.00000000      1.00000000      1.00000000      1.00000000      1.00000000      1.00000000      1.00000000      1.00000000      1.00000000      1.00000000      1.00000000      1.00000000      1.00000000      1.00000000      1.00000000
      1.00000000      1.00000000      1.00000000      1.00000000</v>
  <i type="string" name="LREAL">Auto</i>
  <i type="int" name="ISMEAR">     1</i>
  <i type="int" name="NWRITE">     0</i>
  <v type="int" name="KPOINT_BSE">    -1     0     0     0</v>
 </incar>
 <kpoints>
  <generation param="Gamma">
   <v type="int" name="divisions">       3        3        3 </v>
   <v name="usershift">      0.00000000       0.00000000       0.00000000 </v>
   <v name="genvec1">      0.33333333       0.00000000       0.00000000 </v>
   <v name="genvec2">      0.00000000       0.33333333       0.00000000 </v>
   <v name="genvec3">      0.00000000       0.00000000       0.33333333 </v>
   <v name="shift">      0.00000000       0.00000000       0.00000000 </v>
  </generation>
  <varray name="kpointlist" >
   <v>       0.00000000       0.00000000       0.00000000 </v>
   <v>       0.33333333       0.00000000       0.00000000 </v>
   <v>       0.33333333       0.33333333       0.00000000 </v>
   <v>      -0.33333333       0.33333333       0.00000000 </v>
  </varray>
  <varray name="weights" >
   <v>       0.03703704 </v>
   <v>       0.29629630 </v>
   <v>       0.22222222 </v>
   <v>       0.44444444 </v>
  </varray>
 </kpoints>
 <parameters>
  <separator name="general" >
   <i type="string" name="SYSTEM">phonon of Zr bcc - omiga</i>
   <i type="logical" name="LCOMPAT"> F  </i>
  </separator>
  <separator name="electronic" >
   <i type="string" name="PREC">a</i>
   <i name="ENMAX">    367.94500000</i>
   <i name="ENAUG">    703.44300000</i>
   <i name="EDIFF">      0.00000100</i>
   <i type="int" name="IALGO">    38</i>
   <i type="int" name="IWAVPR">    11</i>
   <i type="int" name="NBANDS">   646</i>
   <i name="NELECT">   1024.00000000</i>
   <i type="int" name="TURBO">     0</i>
   <i type="int" name="IRESTART">     0</i>
   <i type="int" name="NREBOOT">     0</i>
   <i type="int" name="NMIN">     0</i>
   <i name="EREF">      0.00000000</i>
   <separator name="electronic smearing" >
    <i type="int" name="ISMEAR">     1</i>
    <i name="SIGMA">      0.20000000</i>
    <i name="KSPACING">      0.50000000</i>
    <i type="logical" name="KGAMMA"> T  </i>
   </separator>
   <separator name="electronic projectors" >
    <i type="logical" name="LREAL"> T  </i>
    <v name="ROPT">     -0.00025000</v>
    <i type="int" name="LMAXPAW">  -100</i>
    <i type="int" name="LMAXMIX">     2</i>
    <i type="logical" name="NLSPLINE"> F  </i>
   </separator>
   <separator name="electronic startup" >
    <i type="int" name="ISTART">     0</i>
    <i type="int" name="ICHARG">     2</i>
    <i type="int" name="INIWAV">     1</i>
   </separator>
   <separator name="electronic spin" >
    <i type="int" name="ISPIN">     2</i>
    <i type="logical" name="LNONCOLLINEAR"> F  </i>
    <v name="MAGMOM">      1.00000000      1.00000000      1.00000000      1.00000000      1.00000000      1.00000000      1.00000000      1.00000000      1.00000000      1.00000000      1.00000000      1.00000000      1.00000000      1.00000000      1.00000000      1.00000000      1.00000000      1.00000000      1.00000000      1.00000000
      1.00000000      1.00000000      1.00000000      1.00000000      1.00000000      1.00000000      1.00000000      1.00000000      1.00000000      1.00000000      1.00000000      1.00000000      1.00000000      1.00000000      1.00000000      1.00000000      1.00000000      1.00000000      1.00000000      1.00000000
      1.00000000      1.00000000      1.00000000      1.00000000      1.00000000      1.00000000      1.00000000      1.00000000      1.00000000      1.00000000      1.00000000      1.00000000      1.00000000      1.00000000      1.00000000      1.00000000      1.00000000      1.00000000      1.00000000      1.00000000
      1.00000000      1.00000000      1.00000000      1.00000000</v>
    <i name="NUPDOWN">     -1.00000000</i>
    <i type="logical" name="LSORBIT"> F  </i>
    <v name="SAXIS">      0.00000000      0.00000000      1.00000000</v>
    <i type="logical" name="LSPIRAL"> F  </i>
    <v name="QSPIRAL">      0.00000000      0.00000000      0.00000000</v>
    <i type="logical" name="LZEROZ"> F  </i>
   </separator>
   <separator name="electronic exchange-correlation" >
    <i type="logical" name="LASPH"> F  </i>
    <i type="logical" name="LMETAGGA"> F  </i>
   </separator>
   <separator name="electronic convergence" >
    <i type="int" name="NELM">    60</i>
    <i type="int" name="NELMDL">    -5</i>
    <i type="int" name="NELMIN">     2</i>
    <i name="ENINI">    367.94500000</i>
    <separator name="electronic convergence detail" >
     <i type="logical" name="LDIAG"> T  </i>
     <i type="logical" name="LSUBROT"> F  </i>
     <i name="WEIMIN">      0.00100000</i>
     <i name="EBREAK">      0.00000000</i>
     <i name="DEPER">      0.30000000</i>
     <i type="int" name="NRMM">     4</i>
     <i name="TIME">      0.40000000</i>
    </separator>
   </separator>
   <separator name="electronic mixer" >
    <i name="AMIX">      0.40000000</i>
    <i name="BMIX">      1.00000000</i>
    <i name="AMIN">      0.10000000</i>
    <i name="AMIX_MAG">      1.60000000</i>
    <i name="BMIX_MAG">      1.00000000</i>
    <separator name="electronic mixer details" >
     <i type="int" name="IMIX">     4</i>
     <i type="logical" name="MIXFIRST"> F  </i>
     <i type="int" name="MAXMIX">   -45</i>
     <i name="WC">    100.00000000</i>
     <i type="int" name="INIMIX">     1</i>
     <i type="int" name="MIXPRE">     1</i>
     <i type="int" name="MREMOVE">     5</i>
    </separator>
   </separator>
   <separator name="electronic dipolcorrection" >
    <i type="logical" name="LDIPOL"> F  </i>
    <i type="logical" name="LMONO"> F  </i>
    <i type="int" name="IDIPOL">     0</i>
    <i name="EPSILON">      1.00000000</i>
    <v name="DIPOL">   -100.00000000   -100.00000000   -100.00000000</v>
    <i name="EFIELD">      0.00000000</i>
   </separator>
  </separator>
  <separator name="grids" >
   <i type="int" name="NGX">    64</i>
   <i type="int" name="NGY">    64</i>
   <i type="int" name="NGZ">    64</i>
   <i type="int" name="NGXF">   128</i>
   <i type="int" name="NGYF">   128</i>
   <i type="int" name="NGZF">   128</i>
   <i type="logical" name="ADDGRID"> F  </i>
  </separator>
  <separator name="ionic" >
   <i type="int" name="NSW">   805</i>
   <i type="int" name="IBRION">     6</i>
   <i type="int" name="ISIF">     2</i>
   <i name="PSTRESS">      0.00000000</i>
   <i name="EDIFFG">      0.00001000</i>
   <i type="int" name="NFREE">     4</i>
   <i name="POTIM">      0.50000000</i>
   <i name="SMASS">     -3.00000000</i>
   <i name="SCALEE">      1.00000000</i>
  </separator>
  <separator name="ionic md" >
   <i name="TEBEG">      0.00010000</i>
   <i name="TEEND">      0.00010000</i>
   <i type="int" name="NBLOCK">     1</i>
   <i type="int" name="KBLOCK">     1</i>
   <i type="int" name="NPACO">   256</i>
   <i name="APACO">     16.00000000</i>
  </separator>
  <separator name="symmetry" >
   <i type="int" name="ISYM">     2</i>
   <i name="SYMPREC">      0.00001000</i>
  </separator>
  <separator name="dos" >
   <i type="logical" name="LORBIT"> F  </i>
   <v name="RWIGS">     -1.00000000</v>
   <i type="int" name="NEDOS">   301</i>
   <i name="EMIN">     10.00000000</i>
   <i name="EMAX">    -10.00000000</i>
   <i name="EFERMI">      0.00000000</i>
  </separator>
  <separator name="writing" >
   <i type="int" name="NWRITE">     0</i>
   <i type="logical" name="LWAVE"> T  </i>
   <i type="logical" name="LCHARG"> T  </i>
   <i type="logical" name="LPARD"> F  </i>
   <i type="logical" name="LVTOT"> F  </i>
   <i type="logical" name="LVHAR"> F  </i>
   <i type="logical" name="LELF"> F  </i>
   <i type="logical" name="LOPTICS"> F  </i>
   <v name="STM">      0.00000000      0.00000000      0.00000000      0.00000000      0.00000000      0.00000000      0.00000000</v>
  </separator>
  <separator name="performance" >
   <i type="int" name="NPAR">     1</i>
   <i type="int" name="NSIM">     4</i>
   <i type="int" name="NBLK">    -1</i>
   <i type="logical" name="LPLANE"> T  </i>
   <i type="logical" name="LSCALAPACK"> T  </i>
   <i type="logical" name="LSCAAWARE"> F  </i>
   <i type="logical" name="LSCALU"> F  </i>
   <i type="logical" name="LASYNC"> F  </i>
   <i type="logical" name="LORBITALREAL"> F  </i>
  </separator>
  <separator name="miscellaneous" >
   <i type="int" name="IDIOT">     3</i>
   <i type="logical" name="LMUSIC"> F  </i>
   <v name="POMASS">     58.69000000</v>
   <v name="DARWINR">      0.00000000</v>
   <v name="DARWINV">      1.00000000</v>
   <i type="logical" name="LCORR"> T  </i>
  </separator>
  <i type="logical" name="GGA_COMPAT"> T  </i>
  <i type="logical" name="LBERRY"> F  </i>
  <i type="int" name="ICORELEVEL">     0</i>
  <i type="logical" name="LDAU"> F  </i>
  <i type="int" name="I_CONSTRAINED_M">     0</i>
  <separator name="electronic exchange-correlation" >
   <i type="string" name="GGA">--</i>
   <i type="int" name="VOSKOWN">     0</i>
   <i type="logical" name="LHFCALC"> F  </i>
   <i type="string" name="PRECFOCK"></i>
   <i type="logical" name="LSYMGRAD"> F  </i>
   <i type="logical" name="LHFONE"> F  </i>
   <i type="logical" name="LRHFCALC"> F  </i>
   <i type="logical" name="LTHOMAS"> F  </i>
   <i type="logical" name="LMODELHF"> F  </i>
   <i name="ENCUT4O">     -1.00000000</i>
   <i type="int" name="EXXOEP">     0</i>
   <i type="int" name="FOURORBIT">     0</i>
   <i name="AEXX">      0.00000000</i>
   <i name="HFALPHA">      0.00000000</i>
   <i name="MCALPHA">      0.00000000</i>
   <i name="ALDAX">      1.00000000</i>
   <i name="AGGAX">      1.00000000</i>
   <i name="ALDAC">      1.00000000</i>
   <i name="AGGAC">      1.00000000</i>
   <i type="int" name="NKREDX">     1</i>
   <i type="int" name="NKREDY">     1</i>
   <i type="int" name="NKREDZ">     1</i>
   <i type="logical" name="SHIFTRED"> F  </i>
   <i type="logical" name="ODDONLY"> F  </i>
   <i type="logical" name="EVENONLY"> F  </i>
   <i type="int" name="LMAXFOCK">     0</i>
   <i type="int" name="NMAXFOCKAE">     0</i>
   <i type="logical" name="LFOCKAEDFT"> F  </i>
   <i name="HFSCREEN">      0.00000000</i>
   <i name="HFSCREENC">      0.00000000</i>
   <i type="int" name="NBANDSGWLOW">     0</i>
  </separator>
  <separator name="vdW DFT" >
   <i type="logical" name="LUSE_VDW"> F  </i>
   <i name="Zab_VDW">     -0.84910000</i>
   <i name="PARAM1">      0.12340000</i>
   <i name="PARAM2">      1.00000000</i>
   <i name="PARAM3">      0.00000000</i>
  </separator>
  <separator name="model GW" >
   <i type="int" name="MODEL_GW">     0</i>
   <i name="MODEL_EPS0">      6.87015839</i>
   <i name="MODEL_ALPHA">      1.00000000</i>
  </separator>
  <separator name="linear response parameters" >
   <i type="logical" name="LEPSILON"> F  </i>
   <i type="logical" name="LRPA"> F  </i>
   <i type="logical" name="LNABLA"> F  </i>
   <i type="logical" name="LVEL"> F  </i>
   <i type="int" name="KINTER">     0</i>
   <i name="CSHIFT">      0.10000000</i>
   <i name="OMEGAMAX">     -1.00000000</i>
   <i name="DEG_THRESHOLD">      0.00200000</i>
  </separator>
  <separator name="orbital magnetization" >
   <i type="logical" name="NUCIND"> F  </i>
   <v name="MAGPOS">      0.00000000      0.00000000      0.00000000</v>
   <i type="logical" name="LNICSALL"> T  </i>
   <i type="logical" name="ORBITALMAG"> F  </i>
   <i type="logical" name="LMAGBLOCH"> F  </i>
   <i type="logical" name="LCHIMAG"> F  </i>
   <i type="logical" name="LGAUGE"> T  </i>
   <i type="int" name="MAGATOM">     0</i>
   <v name="MAGDIPOL">      0.00000000      0.00000000      0.00000000</v>
   <v name="AVECCONST">      0.00000000      0.00000000      0.00000000</v>
  </separator>
  <separator name="response functions" >
   <i type="logical" name="LADDER"> F  </i>
   <i type="logical" name="LFXC"> F  </i>
   <i type="logical" name="LHARTREE"> T  </i>
   <i type="int" name="IBSE">     0</i>
   <v type="int" name="KPOINT">    -1     0     0     0</v>
   <i type="logical" name="LTCTE"> F  </i>
   <i type="logical" name="LTETE"> F  </i>
   <i type="logical" name="LTRIPLET"> F  </i>
   <i type="logical" name="LFXCEPS"> F  </i>
   <i type="logical" name="LFXHEG"> F  </i>
   <i type="int" name="NATURALO">     0</i>
   <i type="logical" name="L2ORDER"> F  </i>
   <i type="logical" name="LUSEW"> F  </i>
   <i name="ENCUTGW">     -2.00000000</i>
   <i name="ENCUTGWSOFT">     -2.00000000</i>
   <i name="ENCUTLF">     -1.00000000</i>
   <i type="int" name="LMAXMP2">    -1</i>
   <i name="SCISSOR">      0.00000000</i>
   <i type="int" name="NOMEGA">     0</i>
   <i type="int" name="NOMEGAR">     0</i>
   <i type="int" name="NBANDSGW">    -1</i>
   <i type="int" name="NBANDSO">    -1</i>
   <i type="int" name="NBANDSV">    -1</i>
   <i type="int" name="NELM">     1</i>
   <i type="int" name="NELMHF">     1</i>
   <i type="int" name="DIM">     3</i>
   <i type="int" name="ANTIRES">     0</i>
   <i name="OMEGAMAX">    -30.00000000</i>
   <i name="OMEGAMIN">    -30.00000000</i>
   <i name="OMEGATL">   -200.00000000</i>
   <i type="int" name="OMEGAGRID">     0</i>
   <i name="CSHIFT">     -0.10000000</i>
   <i type="logical" name="SELFENERGY"> F  </i>
   <i type="logical" name="LSPECTRAL"> F  </i>
   <i type="logical" name="LSPECTRALGW"> F  </i>
   <i type="logical" name="LSINGLES"> F  </i>
   <i type="logical" name="LFERMIGW"> F  </i>
   <i type="logical" name="ODDONLYGW"> F  </i>
   <i type="logical" name="EVENONLYGW"> F  </i>
   <i type="int" name="NKREDLFX">     1</i>
   <i type="int" name="NKREDLFY">     1</i>
   <i type="int" name="NKREDLFZ">     1</i>
   <i type="int" name="MAXMEM">  1800</i>
   <i type="int" name="TELESCOPE">     0</i>
   <i type="int" name="TAUPAR">     1</i>
   <i type="int" name="OMEGAPAR">    -1</i>
   <i name="LAMBDA">      1.00000000</i>
  </separator>
  <separator name="External order field" >
   <i name="OFIELD_KAPPA">      0.00000000</i>
   <v name="OFIELD_K">      0.00000000      0.00000000      0.00000000</v>
   <i name="OFIELD_Q6_NEAR">      0.00000000</i>
   <i name="OFIELD_Q6_FAR">      0.00000000</i>
   <i name="OFIELD_A">      0.00000000</i>
  </separator>
 </parameters>
 <atominfo>
  <atoms>      64 </atoms>
  <types>       1 </types>
  <array name="atoms" >
   <dimension dim="1">ion</dimension>
   <field type="string">element</field>
   <field type="int">atomtype</field>
   <set>
    <rc><c>Ni</c><c>   1</c></rc>
    <rc><c>Ni</c><c>   1</c></rc>
    <rc><c>Ni</c><c>   1</c></rc>
    <rc><c>Ni</c><c>   1</c></rc>
    <rc><c>Ni</c><c>   1</c></rc>
    <rc><c>Ni</c><c>   1</c></rc>
    <rc><c>Ni</c><c>   1</c></rc>
    <rc><c>Ni</c><c>   1</c></rc>
    <rc><c>Ni</c><c>   1</c></rc>
    <rc><c>Ni</c><c>   1</c></rc>
    <rc><c>Ni</c><c>   1</c></rc>
    <rc><c>Ni</c><c>   1</c></rc>
    <rc><c>Ni</c><c>   1</c></rc>
    <rc><c>Ni</c><c>   1</c></rc>
    <rc><c>Ni</c><c>   1</c></rc>
    <rc><c>Ni</c><c>   1</c></rc>
    <rc><c>Ni</c><c>   1</c></rc>
    <rc><c>Ni</c><c>   1</c></rc>
    <rc><c>Ni</c><c>   1</c></rc>
    <rc><c>Ni</c><c>   1</c></rc>
    <rc><c>Ni</c><c>   1</c></rc>
    <rc><c>Ni</c><c>   1</c></rc>
    <rc><c>Ni</c><c>   1</c></rc>
    <rc><c>Ni</c><c>   1</c></rc>
    <rc><c>Ni</c><c>   1</c></rc>
    <rc><c>Ni</c><c>   1</c></rc>
    <rc><c>Ni</c><c>   1</c></rc>
    <rc><c>Ni</c><c>   1</c></rc>
    <rc><c>Ni</c><c>   1</c></rc>
    <rc><c>Ni</c><c>   1</c></rc>
    <rc><c>Ni</c><c>   1</c></rc>
    <rc><c>Ni</c><c>   1</c></rc>
    <rc><c>Ni</c><c>   1</c></rc>
    <rc><c>Ni</c><c>   1</c></rc>
    <rc><c>Ni</c><c>   1</c></rc>
    <rc><c>Ni</c><c>   1</c></rc>
    <rc><c>Ni</c><c>   1</c></rc>
    <rc><c>Ni</c><c>   1</c></rc>
    <rc><c>Ni</c><c>   1</c></rc>
    <rc><c>Ni</c><c>   1</c></rc>
    <rc><c>Ni</c><c>   1</c></rc>
    <rc><c>Ni</c><c>   1</c></rc>
    <rc><c>Ni</c><c>   1</c></rc>
    <rc><c>Ni</c><c>   1</c></rc>
    <rc><c>Ni</c><c>   1</c></rc>
    <rc><c>Ni</c><c>   1</c></rc>
    <rc><c>Ni</c><c>   1</c></rc>
    <rc><c>Ni</c><c>   1</c></rc>
    <rc><c>Ni</c><c>   1</c></rc>
    <rc><c>Ni</c><c>   1</c></rc>
    <rc><c>Ni</c><c>   1</c></rc>
    <rc><c>Ni</c><c>   1</c></rc>
    <rc><c>Ni</c><c>   1</c></rc>
    <rc><c>Ni</c><c>   1</c></rc>
    <rc><c>Ni</c><c>   1</c></rc>
    <rc><c>Ni</c><c>   1</c></rc>
    <rc><c>Ni</c><c>   1</c></rc>
    <rc><c>Ni</c><c>   1</c></rc>
    <rc><c>Ni</c><c>   1</c></rc>
    <rc><c>Ni</c><c>   1</c></rc>
    <rc><c>Ni</c><c>   1</c></rc>
    <rc><c>Ni</c><c>   1</c></rc>
    <rc><c>Ni</c><c>   1</c></rc>
    <rc><c>Ni</c><c>   1</c></rc>
   </set>
  </array>
  <array name="atomtypes" >
   <dimension dim="1">type</dimension>
   <field type="int">atomspertype</field>
   <field type="string">element</field>
   <field>mass</field>
   <field>valence</field>
   <field type="string">pseudopotential</field>
   <set>
    <rc><c>  64</c><c>Ni</c><c>     58.69000000</c><c>     16.00000000</c><c> PAW_PBE Ni_pv 06Sep2000                </c></rc>
   </set>
  </array>
 </atominfo>
 <structure name="initialpos" >
  <crystal>
   <varray name="basis" >
    <v>       0.00000000       7.15575000       7.15575000 </v>
    <v>       7.15575000       0.00000000       7.15575000 </v>
    <v>       7.15575000       7.15575000       0.00000000 </v>
   </varray>
   <i name="volume">    732.81689501 </i>
   <varray name="rec_basis" >
    <v>      -0.06987388       0.06987388       0.06987388 </v>
    <v>       0.06987388      -0.06987388       0.06987388 </v>
    <v>       0.06987388       0.06987388      -0.06987388 </v>
   </varray>
  </crystal>
  <varray name="positions" >
   <v>       0.00000000       0.00000000       0.00000000 </v>
   <v>       0.00000000       0.00000000       0.25000000 </v>
   <v>       0.00000000       0.00000000       0.50000000 </v>
   <v>       0.00000000       0.00000000       0.75000000 </v>
   <v>       0.00000000       0.25000000       0.00000000 </v>
   <v>       0.00000000       0.25000000       0.25000000 </v>
   <v>       0.00000000       0.25000000       0.50000000 </v>
   <v>       0.00000000       0.25000000       0.75000000 </v>
   <v>       0.00000000       0.50000000       0.00000000 </v>
   <v>       0.00000000       0.50000000       0.25000000 </v>
   <v>       0.00000000       0.50000000       0.50000000 </v>
   <v>       0.00000000       0.50000000       0.75000000 </v>
   <v>       0.00000000       0.75000000       0.00000000 </v>
   <v>       0.00000000       0.75000000       0.25000000 </v>
   <v>       0.00000000       0.75000000       0.50000000 </v>
   <v>       0.00000000       0.75000000       0.75000000 </v>
   <v>       0.25000000       0.00000000       0.00000000 </v>
   <v>       0.25000000       0.00000000       0.25000000 </v>
   <v>       0.25000000       0.00000000       0.50000000 </v>
   <v>       0.25000000       0.00000000       0.75000000 </v>
   <v>       0.25000000       0.25000000       0.00000000 </v>
   <v>       0.25000000       0.25000000       0.25000000 </v>
   <v>       0.25000000       0.25000000       0.50000000 </v>
   <v>       0.25000000       0.25000000       0.75000000 </v>
   <v>       0.25000000       0.50000000       0.00000000 </v>
   <v>       0.25000000       0.50000000       0.25000000 </v>
   <v>       0.25000000       0.50000000       0.50000000 </v>
   <v>       0.25000000       0.50000000       0.75000000 </v>
   <v>       0.25000000       0.75000000       0.00000000 </v>
   <v>       0.25000000       0.75000000       0.25000000 </v>
   <v>       0.25000000       0.75000000       0.50000000 </v>
   <v>       0.25000000       0.75000000       0.75000000 </v>
   <v>       0.50000000       0.00000000       0.00000000 </v>
   <v>       0.50000000       0.00000000       0.25000000 </v>
   <v>       0.50000000       0.00000000       0.50000000 </v>
   <v>       0.50000000       0.00000000       0.75000000 </v>
   <v>       0.50000000       0.25000000       0.00000000 </v>
   <v>       0.50000000       0.25000000       0.25000000 </v>
   <v>       0.50000000       0.25000000       0.50000000 </v>
   <v>       0.50000000       0.25000000       0.75000000 </v>
   <v>       0.50000000       0.50000000       0.00000000 </v>
   <v>       0.50000000       0.50000000       0.25000000 </v>
   <v>       0.50000000       0.50000000       0.50000000 </v>
   <v>       0.50000000       0.50000000       0.75000000 </v>
   <v>       0.50000000       0.75000000       0.00000000 </v>
   <v>       0.50000000       0.75000000       0.25000000 </v>
   <v>       0.50000000       0.75000000       0.50000000 </v>
   <v>       0.50000000       0.75000000       0.75000000 </v>
   <v>       0.75000000       0.00000000       0.00000000 </v>
   <v>       0.75000000       0.00000000       0.25000000 </v>
   <v>       0.75000000       0.00000000       0.50000000 </v>
   <v>       0.75000000       0.00000000       0.75000000 </v>
   <v>       0.75000000       0.25000000       0.00000000 </v>
   <v>       0.75000000       0.25000000       0.25000000 </v>
   <v>       0.75000000       0.25000000       0.50000000 </v>
   <v>       0.75000000       0.25000000       0.75000000 </v>
   <v>       0.75000000       0.50000000       0.00000000 </v>
   <v>       0.75000000       0.50000000       0.25000000 </v>
   <v>       0.75000000       0.50000000       0.50000000 </v>
   <v>       0.75000000       0.50000000       0.75000000 </v>
   <v>       0.75000000       0.75000000       0.00000000 </v>
   <v>       0.75000000       0.75000000       0.25000000 </v>
   <v>       0.75000000       0.75000000       0.50000000 </v>
   <v>       0.75000000       0.75000000       0.75000000 </v>
  </varray>
 </structure>
 <calculation>
  <scstep>
   <time name="dav">  469.89  469.52</time>
   <time name="total">  472.63  472.28</time>
   <energy>
    <i name="alphaZ">   9415.99145534 </i>
    <i name="ewald">-151163.59208203 </i>
    <i name="hartreedc"> -63206.27708491 </i>
    <i name="XCdc">   5707.96949344 </i>
    <i name="pawpsdc"> 172361.15642774 </i>
    <i name="pawaedc">-181272.45834873 </i>
    <i name="eentropy">     -0.00798345 </i>
    <i name="bandstr">  -2029.06278973 </i>
    <i name="atom"> 224013.29143063 </i>
    <i name="e_fr_energy">  13827.01051831 </i>
    <i name="e_wo_entrp">  13827.01850176 </i>
    <i name="e_0_energy">  13827.01317946 </i>
   </energy>
  </scstep>
  <scstep>
   <time name="dav">  431.47  431.12</time>
   <time name="total">  431.49  431.13</time>
   <energy>
    <i name="e_fr_energy">    779.49299406 </i>
    <i name="e_wo_entrp">    779.48427500 </i>
    <i name="e_0_energy">    779.49008771 </i>
   </energy>
  </scstep>
  <scstep>
   <time name="dav">  440.15  439.79</time>
   <time name="total">  440.17  439.81</time>
   <energy>
    <i name="e_fr_energy">   -372.12703906 </i>
    <i name="e_wo_entrp">   -372.30736656 </i>
    <i name="e_0_energy">   -372.18714823 </i>
   </energy>
  </scstep>
  <scstep>
   <time name="dav">  444.18  443.81</time>
   <time name="total">  444.19  443.83</time>
   <energy>
    <i name="e_fr_energy">   -430.26160859 </i>
    <i name="e_wo_entrp">   -430.43873662 </i>
    <i name="e_0_energy">   -430.32065127 </i>
   </energy>
  </scstep>
  <scstep>
   <time name="dav">  429.35  429.00</time>
   <time name="total">  450.22  449.85</time>
   <energy>
    <i name="e_fr_energy">   -431.10481460 </i>
    <i name="e_wo_entrp">   -431.28192467 </i>
    <i name="e_0_energy">   -431.16385129 </i>
   </energy>
  </scstep>
  <scstep>
   <time name="dav">  443.52  443.16</time>
   <time name="total">  467.39  467.01</time>
   <energy>
    <i name="e_fr_energy">   -398.53712801 </i>
    <i name="e_wo_entrp">   -398.13809642 </i>
    <i name="e_0_energy">   -398.40411748 </i>
   </energy>
  </scstep>
  <scstep>
   <time name="dav">  442.86  442.50</time>
   <time name="total">  467.77  467.38</time>
   <energy>
    <i name="e_fr_energy">   -367.59763007 </i>
    <i name="e_wo_entrp">   -367.56511982 </i>
    <i name="e_0_energy">   -367.58679332 </i>
   </energy>
  </scstep>
  <scstep>
   <time name="dav">  448.34  447.98</time>
   <time name="total">  472.68  472.29</time>
   <energy>
    <i name="e_fr_energy">   -367.69799028 </i>
    <i name="e_wo_entrp">   -367.66772029 </i>
    <i name="e_0_energy">   -367.68790028 </i>
   </energy>
  </scstep>
  <scstep>
   <time name="dav">  451.19  450.82</time>
   <time name="total">  475.34  474.95</time>
   <energy>
    <i name="e_fr_energy">   -367.57322187 </i>
    <i name="e_wo_entrp">   -367.53265681 </i>
    <i name="e_0_energy">   -367.55970018 </i>
   </energy>
  </scstep>
  <scstep>
   <time name="dav">  468.68  468.30</time>
   <time name="total">  492.53  492.13</time>
   <energy>
    <i name="e_fr_energy">   -367.57847525 </i>
    <i name="e_wo_entrp">   -367.53871267 </i>
    <i name="e_0_energy">   -367.56522105 </i>
   </energy>
  </scstep>
  <scstep>
   <time name="dav">  440.00  439.64</time>
   <time name="total">  461.31  460.94</time>
   <energy>
    <i name="e_fr_energy">   -367.58260321 </i>
    <i name="e_wo_entrp">   -367.54396835 </i>
    <i name="e_0_energy">   -367.56972492 </i>
   </energy>
  </scstep>
  <scstep>
   <time name="dav">  433.52  433.17</time>
   <time name="total">  454.23  453.86</time>
   <energy>
    <i name="e_fr_energy">   -367.58259405 </i>
    <i name="e_wo_entrp">   -367.54242321 </i>
    <i name="e_0_energy">   -367.56920377 </i>
   </energy>
  </scstep>
  <scstep>
   <time name="dav">  397.51  397.19</time>
   <time name="total">  417.84  417.50</time>
   <energy>
    <i name="e_fr_energy">   -367.58259966 </i>
    <i name="e_wo_entrp">   -367.54218293 </i>
    <i name="e_0_energy">   -367.56912742 </i>
   </energy>
  </scstep>
  <scstep>
   <time name="dav">  377.51  377.20</time>
   <time name="total">  398.52  398.20</time>
   <energy>
    <i name="e_fr_energy">   -367.58257533 </i>
    <i name="e_wo_entrp">   -367.54219127 </i>
    <i name="e_0_energy">   -367.56911398 </i>
   </energy>
  </scstep>
  <scstep>
   <time name="dav">  269.94  269.72</time>
   <time name="total">  290.78  290.55</time>
   <energy>
    <i name="e_fr_energy">   -367.58256852 </i>
    <i name="e_wo_entrp">   -367.54225350 </i>
    <i name="e_0_energy">   -367.56913018 </i>
   </energy>
  </scstep>
  <scstep>
   <time name="dav">  264.04  263.83</time>
   <time name="total">  266.76  266.54</time>
   <energy>
    <i name="alphaZ">   9415.99145534 </i>
    <i name="ewald">-151163.59208203 </i>
    <i name="hartreedc"> -60858.21477088 </i>
    <i name="XCdc">   5619.82699541 </i>
    <i name="pawpsdc"> 171593.13161075 </i>
    <i name="pawaedc">-180635.68197928 </i>
    <i name="eentropy">     -0.04029160 </i>
    <i name="bandstr"> -18352.29493691 </i>
    <i name="atom"> 224013.29143063 </i>
    <i name="e_fr_energy">   -367.58256859 </i>
    <i name="e_wo_entrp">   -367.54227699 </i>
    <i name="e_0_energy">   -367.56913805 </i>
   </energy>
  </scstep>
  <structure>
   <crystal>
    <varray name="basis" >
     <v>       0.00000000       7.15575000       7.15575000 </v>
     <v>       7.15575000       0.00000000       7.15575000 </v>
     <v>       7.15575000       7.15575000       0.00000000 </v>
    </varray>
    <i name="volume">    732.81689501 </i>
    <varray name="rec_basis" >
     <v>      -0.06987388       0.06987388       0.06987388 </v>
     <v>       0.06987388      -0.06987388       0.06987388 </v>
     <v>       0.06987388       0.06987388      -0.06987388 </v>
    </varray>
   </crystal>
   <varray name="positions" >
    <v>       0.00000000       0.00000000       0.00000000 </v>
    <v>       0.00000000       0.00000000       0.25000000 </v>
    <v>       0.00000000       0.00000000       0.50000000 </v>
    <v>       0.00000000       0.00000000       0.75000000 </v>
    <v>       0.00000000       0.25000000       0.00000000 </v>
    <v>       0.00000000       0.25000000       0.25000000 </v>
    <v>       0.00000000       0.25000000       0.50000000 </v>
    <v>       0.00000000       0.25000000       0.75000000 </v>
    <v>       0.00000000       0.50000000       0.00000000 </v>
    <v>       0.00000000       0.50000000       0.25000000 </v>
    <v>       0.00000000       0.50000000       0.50000000 </v>
    <v>       0.00000000       0.50000000       0.75000000 </v>
    <v>       0.00000000       0.75000000       0.00000000 </v>
    <v>       0.00000000       0.75000000       0.25000000 </v>
    <v>       0.00000000       0.75000000       0.50000000 </v>
    <v>       0.00000000       0.75000000       0.75000000 </v>
    <v>       0.25000000       0.00000000       0.00000000 </v>
    <v>       0.25000000       0.00000000       0.25000000 </v>
    <v>       0.25000000       0.00000000       0.50000000 </v>
    <v>       0.25000000       0.00000000       0.75000000 </v>
    <v>       0.25000000       0.25000000       0.00000000 </v>
    <v>       0.25000000       0.25000000       0.25000000 </v>
    <v>       0.25000000       0.25000000       0.50000000 </v>
    <v>       0.25000000       0.25000000       0.75000000 </v>
    <v>       0.25000000       0.50000000       0.00000000 </v>
    <v>       0.25000000       0.50000000       0.25000000 </v>
    <v>       0.25000000       0.50000000       0.50000000 </v>
    <v>       0.25000000       0.50000000       0.75000000 </v>
    <v>       0.25000000       0.75000000       0.00000000 </v>
    <v>       0.25000000       0.75000000       0.25000000 </v>
    <v>       0.25000000       0.75000000       0.50000000 </v>
    <v>       0.25000000       0.75000000       0.75000000 </v>
    <v>       0.50000000       0.00000000       0.00000000 </v>
    <v>       0.50000000       0.00000000       0.25000000 </v>
    <v>       0.50000000       0.00000000       0.50000000 </v>
    <v>       0.50000000       0.00000000       0.75000000 </v>
    <v>       0.50000000       0.25000000       0.00000000 </v>
    <v>       0.50000000       0.25000000       0.25000000 </v>
    <v>       0.50000000       0.25000000       0.50000000 </v>
    <v>       0.50000000       0.25000000       0.75000000 </v>
    <v>       0.50000000       0.50000000       0.00000000 </v>
    <v>       0.50000000       0.50000000       0.25000000 </v>
    <v>       0.50000000       0.50000000       0.50000000 </v>
    <v>       0.50000000       0.50000000       0.75000000 </v>
    <v>       0.50000000       0.75000000       0.00000000 </v>
    <v>       0.50000000       0.75000000       0.25000000 </v>
    <v>       0.50000000       0.75000000       0.50000000 </v>
    <v>       0.50000000       0.75000000       0.75000000 </v>
    <v>       0.75000000       0.00000000       0.00000000 </v>
    <v>       0.75000000       0.00000000       0.25000000 </v>
    <v>       0.75000000       0.00000000       0.50000000 </v>
    <v>       0.75000000       0.00000000       0.75000000 </v>
    <v>       0.75000000       0.25000000       0.00000000 </v>
    <v>       0.75000000       0.25000000       0.25000000 </v>
    <v>       0.75000000       0.25000000       0.50000000 </v>
    <v>       0.75000000       0.25000000       0.75000000 </v>
    <v>       0.75000000       0.50000000       0.00000000 </v>
    <v>       0.75000000       0.50000000       0.25000000 </v>
    <v>       0.75000000       0.50000000       0.50000000 </v>
    <v>       0.75000000       0.50000000       0.75000000 </v>
    <v>       0.75000000       0.75000000       0.00000000 </v>
    <v>       0.75000000       0.75000000       0.25000000 </v>
    <v>       0.75000000       0.75000000       0.50000000 </v>
    <v>       0.75000000       0.75000000       0.75000000 </v>
   </varray>
  </structure>
  <varray name="forces" >
   <v>       0.00000000      -0.00000000       0.00000000 </v>
   <v>       0.00000000       0.00000000      -0.00000000 </v>
   <v>      -0.00000000      -0.00000000      -0.00000000 </v>
   <v>      -0.00000000       0.00000000       0.00000000 </v>
   <v>       0.00000000       0.00000000       0.00000000 </v>
   <v>      -0.00000000      -0.00000000       0.00000000 </v>
   <v>       0.00000000      -0.00000000      -0.00000000 </v>
   <v>      -0.00000000       0.00000000       0.00000000 </v>
   <v>       0.00000000       0.00000000       0.00000000 </v>
   <v>       0.00000000      -0.00000000       0.00000000 </v>
   <v>       0.00000000      -0.00000000       0.00000000 </v>
   <v>       0.00000000       0.00000000       0.00000000 </v>
   <v>      -0.00000000       0.00000000      -0.00000000 </v>
   <v>       0.00000000      -0.00000000      -0.00000000 </v>
   <v>      -0.00000000      -0.00000000       0.00000000 </v>
   <v>       0.00000000      -0.00000000      -0.00000000 </v>
   <v>       0.00000000       0.00000000      -0.00000000 </v>
   <v>       0.00000000       0.00000000      -0.00000000 </v>
   <v>      -0.00000000      -0.00000000       0.00000000 </v>
   <v>      -0.00000000      -0.00000000       0.00000000 </v>
   <v>      -0.00000000       0.00000000      -0.00000000 </v>
   <v>      -0.00000000      -0.00000000       0.00000000 </v>
   <v>       0.00000000      -0.00000000      -0.00000000 </v>
   <v>      -0.00000000       0.00000000       0.00000000 </v>
   <v>      -0.00000000       0.00000000      -0.00000000 </v>
   <v>      -0.00000000       0.00000000      -0.00000000 </v>
   <v>       0.00000000      -0.00000000      -0.00000000 </v>
   <v>      -0.00000000      -0.00000000      -0.00000000 </v>
   <v>       0.00000000       0.00000000       0.00000000 </v>
   <v>       0.00000000       0.00000000      -0.00000000 </v>
   <v>      -0.00000000      -0.00000000       0.00000000 </v>
   <v>       0.00000000      -0.00000000      -0.00000000 </v>
   <v>       0.00000000       0.00000000      -0.00000000 </v>
   <v>       0.00000000       0.00000000       0.00000000 </v>
   <v>       0.00000000      -0.00000000       0.00000000 </v>
   <v>      -0.00000000       0.00000000       0.00000000 </v>
   <v>       0.00000000       0.00000000      -0.00000000 </v>
   <v>      -0.00000000       0.00000000       0.00000000 </v>
   <v>      -0.00000000      -0.00000000      -0.00000000 </v>
   <v>       0.00000000       0.00000000       0.00000000 </v>
   <v>       0.00000000      -0.00000000      -0.00000000 </v>
   <v>       0.00000000      -0.00000000      -0.00000000 </v>
   <v>      -0.00000000      -0.00000000      -0.00000000 </v>
   <v>       0.00000000      -0.00000000      -0.00000000 </v>
   <v>       0.00000000       0.00000000      -0.00000000 </v>
   <v>       0.00000000      -0.00000000      -0.00000000 </v>
   <v>      -0.00000000      -0.00000000      -0.00000000 </v>
   <v>       0.00000000      -0.00000000      -0.00000000 </v>
   <v>      -0.00000000       0.00000000       0.00000000 </v>
   <v>      -0.00000000      -0.00000000      -0.00000000 </v>
   <v>      -0.00000000      -0.00000000       0.00000000 </v>
   <v>       0.00000000      -0.00000000       0.00000000 </v>
   <v>      -0.00000000       0.00000000       0.00000000 </v>
   <v>      -0.00000000      -0.00000000      -0.00000000 </v>
   <v>       0.00000000      -0.00000000      -0.00000000 </v>
   <v>      -0.00000000       0.00000000       0.00000000 </v>
   <v>       0.00000000       0.00000000      -0.00000000 </v>
   <v>      -0.00000000       0.00000000       0.00000000 </v>
   <v>      -0.00000000      -0.00000000       0.00000000 </v>
   <v>       0.00000000      -0.00000000      -0.00000000 </v>
   <v>       0.00000000       0.00000000      -0.00000000 </v>
   <v>       0.00000000      -0.00000000      -0.00000000 </v>
   <v>      -0.00000000      -0.00000000       0.00000000 </v>
   <v>      -0.00000000      -0.00000000      -0.00000000 </v>
  </varray>
  <varray name="stress" >
   <v>    -221.65366104       0.00000000       0.00000000 </v>
   <v>       0.00000000    -221.65366104       0.00000000 </v>
   <v>      -0.00000000       0.00000000    -221.65366104 </v>
  </varray>
  <energy>
   <i name="e_fr_energy">   -367.58256859 </i>
   <i name="e_wo_entrp">   -367.56913805 </i>
   <i name="e_0_energy">     -0.04029160 </i>
  </energy>
  <kpoints>
   <generation param="Gamma">
    <v type="int" name="divisions">       3        3        3 </v>
    <v name="usershift">      0.00000000       0.00000000       0.00000000 </v>
    <v name="genvec1">      0.33333333       0.00000000       0.00000000 </v>
    <v name="genvec2">      0.00000000       0.33333333       0.00000000 </v>
    <v name="genvec3">      0.00000000       0.00000000       0.33333333 </v>
    <v name="shift">      0.00000000       0.00000000       0.00000000 </v>
   </generation>
   <varray name="kpointlist" >
    <v>       0.00000000       0.00000000       0.00000000 </v>
    <v>       0.33333333       0.00000000       0.00000000 </v>
    <v>       0.33333333       0.33333333       0.00000000 </v>
    <v>      -0.33333333       0.33333333       0.00000000 </v>
    <v>       0.00000000       0.33333333       0.33333333 </v>
    <v>      -0.33333333       0.33333333       0.33333333 </v>
   </varray>
   <varray name="weights" >
    <v>       0.03703704 </v>
    <v>       0.29629630 </v>
    <v>       0.14814815 </v>
    <v>       0.29629630 </v>
    <v>       0.07407407 </v>
    <v>       0.14814815 </v>
   </varray>
  </kpoints>
  <time name="totalsc"> 7531.80 7528.01</time>
 </calculation>
 <calculation>
  <scstep>
   <time name="dav">  825.68  825.00</time>
   <time name="total">  853.90  853.20</time>
   <energy>
    <i name="alphaZ">   9415.99145534 </i>
    <i name="ewald">-151162.99475228 </i>
    <i name="hartreedc"> -60858.82215849 </i>
    <i name="XCdc">   5619.83098029 </i>
    <i name="pawpsdc"> 171592.92371941 </i>
    <i name="pawaedc">-180635.48170963 </i>
    <i name="eentropy">     -0.04017636 </i>
    <i name="bandstr"> -18351.95379146 </i>
    <i name="atom"> 224013.29143063 </i>
    <i name="e_fr_energy">   -367.25500255 </i>
    <i name="e_wo_entrp">   -367.21482619 </i>
    <i name="e_0_energy">   -367.24161043 </i>
   </energy>
  </scstep>
  <scstep>
   <time name="dav">  668.27  667.73</time>
   <time name="total">  695.24  694.67</time>
   <energy>
    <i name="e_fr_energy">   -367.59545696 </i>
    <i name="e_wo_entrp">   -367.55515113 </i>
    <i name="e_0_energy">   -367.58202168 </i>
   </energy>
  </scstep>
  <scstep>
   <time name="dav">  779.85  779.21</time>
   <time name="total">  806.67  806.01</time>
   <energy>
    <i name="e_fr_energy">   -367.58343247 </i>
    <i name="e_wo_entrp">   -367.54276116 </i>
    <i name="e_0_energy">   -367.56987536 </i>
   </energy>
  </scstep>
  <scstep>
   <time name="dav">  759.57  758.95</time>
   <time name="total">  786.33  785.68</time>
   <energy>
    <i name="e_fr_energy">   -367.58955902 </i>
    <i name="e_wo_entrp">   -367.54905088 </i>
    <i name="e_0_energy">   -367.57605630 </i>
   </energy>
  </scstep>
  <scstep>
   <time name="dav">  690.85  690.28</time>
   <time name="total">  717.73  717.15</time>
   <energy>
    <i name="e_fr_energy">   -367.57988856 </i>
    <i name="e_wo_entrp">   -367.53953575 </i>
    <i name="e_0_energy">   -367.56643762 </i>
   </energy>
  </scstep>
  <scstep>
   <time name="dav">  759.42  758.80</time>
   <time name="total">  786.26  785.61</time>
   <energy>
    <i name="e_fr_energy">   -367.57970068 </i>
    <i name="e_wo_entrp">   -367.53936391 </i>
    <i name="e_0_energy">   -367.56625509 </i>
   </energy>
  </scstep>
  <scstep>
   <time name="dav">  693.75  693.18</time>
   <time name="total">  721.25  720.65</time>
   <energy>
    <i name="e_fr_energy">   -367.57956117 </i>
    <i name="e_wo_entrp">   -367.53924736 </i>
    <i name="e_0_energy">   -367.56612323 </i>
   </energy>
  </scstep>
  <scstep>
   <time name="dav">  676.81  676.25</time>
   <time name="total">  704.27  703.69</time>
   <energy>
    <i name="e_fr_energy">   -367.57940649 </i>
    <i name="e_wo_entrp">   -367.53911303 </i>
    <i name="e_0_energy">   -367.56597534 </i>
   </energy>
  </scstep>
  <scstep>
   <time name="dav">  687.16  686.60</time>
   <time name="total">  715.10  714.51</time>
   <energy>
    <i name="e_fr_energy">   -367.57951011 </i>
    <i name="e_wo_entrp">   -367.53922823 </i>
    <i name="e_0_energy">   -367.56608282 </i>
   </energy>
  </scstep>
  <scstep>
   <time name="dav">  791.51  790.86</time>
   <time name="total">  819.47  818.80</time>
   <energy>
    <i name="e_fr_energy">   -367.57912835 </i>
    <i name="e_wo_entrp">   -367.53887901 </i>
    <i name="e_0_energy">   -367.56571191 </i>
   </energy>
  </scstep>
  <scstep>
   <time name="dav">  788.33  787.68</time>
   <time name="total">  816.20  815.53</time>
   <energy>
    <i name="e_fr_energy">   -367.57907302 </i>
    <i name="e_wo_entrp">   -367.53882009 </i>
    <i name="e_0_energy">   -367.56565538 </i>
   </energy>
  </scstep>
  <scstep>
   <time name="dav">  789.01  788.36</time>
   <time name="total">  817.06  816.39</time>
   <energy>
    <i name="e_fr_energy">   -367.57908806 </i>
    <i name="e_wo_entrp">   -367.53883417 </i>
    <i name="e_0_energy">   -367.56567010 </i>
   </energy>
  </scstep>
  <scstep>
   <time name="dav">  684.60  684.04</time>
   <time name="total">  712.59  712.01</time>
   <energy>
    <i name="e_fr_energy">   -367.57907232 </i>
    <i name="e_wo_entrp">   -367.53881564 </i>
    <i name="e_0_energy">   -367.56565343 </i>
   </energy>
  </scstep>
  <scstep>
   <time name="dav">  707.48  706.90</time>
   <time name="total">  735.50  734.90</time>
   <energy>
    <i name="e_fr_energy">   -367.57907660 </i>
    <i name="e_wo_entrp">   -367.53881660 </i>
    <i name="e_0_energy">   -367.56565660 </i>
   </energy>
  </scstep>
  <scstep>
   <time name="dav">  539.81  539.37</time>
   <time name="total">  567.70  567.23</time>
   <energy>
    <i name="e_fr_energy">   -367.57907274 </i>
    <i name="e_wo_entrp">   -367.53880700 </i>
    <i name="e_0_energy">   -367.56565082 </i>
   </energy>
  </scstep>
  <scstep>
   <time name="dav">  400.38  400.05</time>
   <time name="total">  403.18  402.85</time>
   <energy>
    <i name="alphaZ">   9415.99145534 </i>
    <i name="ewald">-151162.99475228 </i>
    <i name="hartreedc"> -60858.77943734 </i>
    <i name="XCdc">   5619.82840803 </i>
    <i name="pawpsdc"> 171592.93893880 </i>
    <i name="pawaedc">-180635.49910763 </i>
    <i name="eentropy">     -0.04026519 </i>
    <i name="bandstr"> -18352.31574335 </i>
    <i name="atom"> 224013.29143063 </i>
    <i name="e_fr_energy">   -367.57907299 </i>
    <i name="e_wo_entrp">   -367.53880779 </i>
    <i name="e_0_energy">   -367.56565126 </i>
   </energy>
  </scstep>
  <structure>
   <crystal>
    <varray name="basis" >
     <v>       0.00000000       7.15575000       7.15575000 </v>
     <v>       7.15575000       0.00000000       7.15575000 </v>
     <v>       7.15575000       7.15575000       0.00000000 </v>
    </varray>
    <i name="volume">    732.81689501 </i>
    <varray name="rec_basis" >
     <v>      -0.06987388       0.06987388       0.06987388 </v>
     <v>       0.06987388      -0.06987388       0.06987388 </v>
     <v>       0.06987388       0.06987388      -0.06987388 </v>
    </varray>
   </crystal>
   <varray name="positions" >
    <v>      -0.00209622       0.00209622       0.00209622 </v>
    <v>       0.00000000       0.00000000       0.25000000 </v>
    <v>       0.00000000       0.00000000       0.50000000 </v>
    <v>       0.00000000       0.00000000       0.75000000 </v>
    <v>       0.00000000       0.25000000       0.00000000 </v>
    <v>       0.00000000       0.25000000       0.25000000 </v>
    <v>       0.00000000       0.25000000       0.50000000 </v>
    <v>       0.00000000       0.25000000       0.75000000 </v>
    <v>       0.00000000       0.50000000       0.00000000 </v>
    <v>       0.00000000       0.50000000       0.25000000 </v>
    <v>       0.00000000       0.50000000       0.50000000 </v>
    <v>       0.00000000       0.50000000       0.75000000 </v>
    <v>       0.00000000       0.75000000       0.00000000 </v>
    <v>       0.00000000       0.75000000       0.25000000 </v>
    <v>       0.00000000       0.75000000       0.50000000 </v>
    <v>       0.00000000       0.75000000       0.75000000 </v>
    <v>       0.25000000       0.00000000       0.00000000 </v>
    <v>       0.25000000       0.00000000       0.25000000 </v>
    <v>       0.25000000       0.00000000       0.50000000 </v>
    <v>       0.25000000       0.00000000       0.75000000 </v>
    <v>       0.25000000       0.25000000       0.00000000 </v>
    <v>       0.25000000       0.25000000       0.25000000 </v>
    <v>       0.25000000       0.25000000       0.50000000 </v>
    <v>       0.25000000       0.25000000       0.75000000 </v>
    <v>       0.25000000       0.50000000       0.00000000 </v>
    <v>       0.25000000       0.50000000       0.25000000 </v>
    <v>       0.25000000       0.50000000       0.50000000 </v>
    <v>       0.25000000       0.50000000       0.75000000 </v>
    <v>       0.25000000       0.75000000       0.00000000 </v>
    <v>       0.25000000       0.75000000       0.25000000 </v>
    <v>       0.25000000       0.75000000       0.50000000 </v>
    <v>       0.25000000       0.75000000       0.75000000 </v>
    <v>       0.50000000       0.00000000       0.00000000 </v>
    <v>       0.50000000       0.00000000       0.25000000 </v>
    <v>       0.50000000       0.00000000       0.50000000 </v>
    <v>       0.50000000       0.00000000       0.75000000 </v>
    <v>       0.50000000       0.25000000       0.00000000 </v>
    <v>       0.50000000       0.25000000       0.25000000 </v>
    <v>       0.50000000       0.25000000       0.50000000 </v>
    <v>       0.50000000       0.25000000       0.75000000 </v>
    <v>       0.50000000       0.50000000       0.00000000 </v>
    <v>       0.50000000       0.50000000       0.25000000 </v>
    <v>       0.50000000       0.50000000       0.50000000 </v>
    <v>       0.50000000       0.50000000       0.75000000 </v>
    <v>       0.50000000       0.75000000       0.00000000 </v>
    <v>       0.50000000       0.75000000       0.25000000 </v>
    <v>       0.50000000       0.75000000       0.50000000 </v>
    <v>       0.50000000       0.75000000       0.75000000 </v>
    <v>       0.75000000       0.00000000       0.00000000 </v>
    <v>       0.75000000       0.00000000       0.25000000 </v>
    <v>       0.75000000       0.00000000       0.50000000 </v>
    <v>       0.75000000       0.00000000       0.75000000 </v>
    <v>       0.75000000       0.25000000       0.00000000 </v>
    <v>       0.75000000       0.25000000       0.25000000 </v>
    <v>       0.75000000       0.25000000       0.50000000 </v>
    <v>       0.75000000       0.25000000       0.75000000 </v>
    <v>       0.75000000       0.50000000       0.00000000 </v>
    <v>       0.75000000       0.50000000       0.25000000 </v>
    <v>       0.75000000       0.50000000       0.50000000 </v>
    <v>       0.75000000       0.50000000       0.75000000 </v>
    <v>       0.75000000       0.75000000       0.00000000 </v>
    <v>       0.75000000       0.75000000       0.25000000 </v>
    <v>       0.75000000       0.75000000       0.50000000 </v>
    <v>       0.75000000       0.75000000       0.75000000 </v>
   </varray>
  </structure>
  <varray name="forces" >
   <v>      -0.23585407       0.00000000       0.00000000 </v>
   <v>       0.02707738       0.03025093       0.00000000 </v>
   <v>       0.00045328       0.00017091       0.00000000 </v>
   <v>       0.02446367       0.02678858       0.00000000 </v>
   <v>       0.02707738       0.00000000       0.03025093 </v>
   <v>       0.00226218       0.00137042       0.00137042 </v>
   <v>       0.00051624       0.00129503      -0.00058277 </v>
   <v>      -0.00029694       0.00028666      -0.00028666 </v>
   <v>       0.00045328       0.00000000       0.00017091 </v>
   <v>       0.00051624      -0.00058277       0.00129503 </v>
   <v>      -0.00004026       0.00000000       0.00000000 </v>
   <v>       0.00058347      -0.00064824       0.00136779 </v>
   <v>       0.02446367       0.00000000       0.02678858 </v>
   <v>      -0.00029694      -0.00028666       0.00028666 </v>
   <v>       0.00058347       0.00136779      -0.00064824 </v>
   <v>       0.00217142       0.00127334       0.00127334 </v>
   <v>      -0.00029694      -0.00028666      -0.00028666 </v>
   <v>       0.00058347       0.00136779       0.00064824 </v>
   <v>       0.00217142       0.00127334      -0.00127334 </v>
   <v>       0.02446367       0.00000000      -0.02678858 </v>
   <v>       0.00058347       0.00064824       0.00136779 </v>
   <v>       0.00075211       0.00000000       0.00000000 </v>
   <v>       0.00051624       0.00058277      -0.00129503 </v>
   <v>      -0.00130645       0.00000000       0.00003620 </v>
   <v>       0.00217142      -0.00127334       0.00127334 </v>
   <v>       0.00051624      -0.00129503       0.00058277 </v>
   <v>      -0.00054433      -0.00002000      -0.00002000 </v>
   <v>       0.00025079       0.00000000      -0.00015342 </v>
   <v>       0.02446367      -0.02678858       0.00000000 </v>
   <v>      -0.00130645       0.00003620       0.00000000 </v>
   <v>       0.00025079      -0.00015342       0.00000000 </v>
   <v>       0.00397642       0.00000000       0.00000000 </v>
   <v>      -0.00004026       0.00000000       0.00000000 </v>
   <v>       0.00058347      -0.00064824      -0.00136779 </v>
   <v>       0.00045328       0.00000000      -0.00017091 </v>
   <v>       0.00051624      -0.00058277      -0.00129503 </v>
   <v>       0.00058347      -0.00136779      -0.00064824 </v>
   <v>       0.00226218      -0.00137042      -0.00137042 </v>
   <v>       0.00016987       0.00000000       0.00008673 </v>
   <v>      -0.00054433       0.00002000      -0.00002000 </v>
   <v>       0.00045328      -0.00017091       0.00000000 </v>
   <v>       0.00016987       0.00008673       0.00000000 </v>
   <v>      -0.00116942       0.00000000       0.00000000 </v>
   <v>       0.00025079       0.00015342       0.00000000 </v>
   <v>       0.00051624      -0.00129503      -0.00058277 </v>
   <v>      -0.00054433      -0.00002000       0.00002000 </v>
   <v>       0.00025079       0.00000000       0.00015342 </v>
   <v>       0.00217142      -0.00127334      -0.00127334 </v>
   <v>      -0.00029694       0.00028666       0.00028666 </v>
   <v>       0.02707738       0.00000000      -0.03025093 </v>
   <v>       0.00226218       0.00137042      -0.00137042 </v>
   <v>       0.00051624       0.00129503       0.00058277 </v>
   <v>       0.02707738      -0.03025093       0.00000000 </v>
   <v>       0.00402213       0.00000000       0.00000000 </v>
   <v>       0.00016987      -0.00008673       0.00000000 </v>
   <v>      -0.00130645      -0.00003620       0.00000000 </v>
   <v>       0.00226218      -0.00137042       0.00137042 </v>
   <v>       0.00016987       0.00000000      -0.00008673 </v>
   <v>      -0.00054433       0.00002000       0.00002000 </v>
   <v>       0.00058347      -0.00136779       0.00064824 </v>
   <v>       0.00051624       0.00058277       0.00129503 </v>
   <v>      -0.00130645       0.00000000      -0.00003620 </v>
   <v>       0.00058347       0.00064824      -0.00136779 </v>
   <v>       0.00075211       0.00000000       0.00000000 </v>
  </varray>
  <varray name="stress" >
   <v>    -221.61128945      -0.00000000       0.00000000 </v>
   <v>      -0.00000000    -221.61438281       0.00000000 </v>
   <v>      -0.00000000       0.00000000    -221.61438281 </v>
  </varray>
  <energy>
   <i name="e_fr_energy">   -367.57907299 </i>
   <i name="e_wo_entrp">   -367.56565126 </i>
   <i name="e_0_energy">     -0.04026519 </i>
  </energy>
  <kpoints>
   <generation param="Gamma">
    <v type="int" name="divisions">       3        3        3 </v>
    <v name="usershift">      0.00000000       0.00000000       0.00000000 </v>
    <v name="genvec1">      0.33333333       0.00000000       0.00000000 </v>
    <v name="genvec2">      0.00000000       0.33333333       0.00000000 </v>
    <v name="genvec3">      0.00000000       0.00000000       0.33333333 </v>
    <v name="shift">      0.00000000       0.00000000       0.00000000 </v>
   </generation>
   <varray name="kpointlist" >
    <v>       0.00000000       0.00000000       0.00000000 </v>
    <v>       0.33333333       0.00000000       0.00000000 </v>
    <v>       0.33333333       0.33333333       0.00000000 </v>
    <v>      -0.33333333       0.33333333       0.00000000 </v>
    <v>       0.00000000       0.33333333       0.33333333 </v>
    <v>      -0.33333333       0.33333333       0.33333333 </v>
   </varray>
   <varray name="weights" >
    <v>       0.03703704 </v>
    <v>       0.29629630 </v>
    <v>       0.14814815 </v>
    <v>       0.29629630 </v>
    <v>       0.07407407 </v>
    <v>       0.14814815 </v>
   </varray>
  </kpoints>
  <time name="totalsc">12398.0212388.70</time>
 </calculation>
 <calculation>
  <scstep>
   <time name="dav">  724.29  723.69</time>
   <time name="total">  753.95  753.33</time>
   <energy>
    <i name="alphaZ">   9415.99145534 </i>
    <i name="ewald">-151163.44274241 </i>
    <i name="hartreedc"> -60858.37120951 </i>
    <i name="XCdc">   5619.82801306 </i>
    <i name="pawpsdc"> 171592.94742367 </i>
    <i name="pawaedc">-180635.50872192 </i>
    <i name="eentropy">     -0.04025268 </i>
    <i name="bandstr"> -18352.13687578 </i>
    <i name="atom"> 224013.29143063 </i>
    <i name="e_fr_energy">   -367.44147960 </i>
    <i name="e_wo_entrp">   -367.40122692 </i>
    <i name="e_0_energy">   -367.42806204 </i>
   </energy>
  </scstep>
  <scstep>
   <time name="dav">  591.02  590.53</time>
   <time name="total">  616.86  616.35</time>
   <energy>
    <i name="e_fr_energy">   -367.58232386 </i>
    <i name="e_wo_entrp">   -367.54191428 </i>
    <i name="e_0_energy">   -367.56885400 </i>
   </energy>
  </scstep>
  <scstep>
   <time name="dav">  693.92  693.35</time>
   <time name="total">  719.77  719.18</time>
   <energy>
    <i name="e_fr_energy">   -367.58186129 </i>
    <i name="e_wo_entrp">   -367.54148649 </i>
    <i name="e_0_energy">   -367.56840302 </i>
   </energy>
  </scstep>
  <scstep>
   <time name="dav">  691.01  690.50</time>
   <time name="total">  716.95  716.46</time>
   <energy>
    <i name="e_fr_energy">   -367.58317008 </i>
    <i name="e_wo_entrp">   -367.54281532 </i>
    <i name="e_0_energy">   -367.56971850 </i>
   </energy>
  </scstep>
  <scstep>
   <time name="dav">  622.63  622.12</time>
   <time name="total">  648.74  648.21</time>
   <energy>
    <i name="e_fr_energy">   -367.58182150 </i>
    <i name="e_wo_entrp">   -367.54152112 </i>
    <i name="e_0_energy">   -367.56838804 </i>
   </energy>
  </scstep>
  <scstep>
   <time name="dav">  680.04  679.48</time>
   <time name="total">  706.08  705.50</time>
   <energy>
    <i name="e_fr_energy">   -367.58178848 </i>
    <i name="e_wo_entrp">   -367.54149292 </i>
    <i name="e_0_energy">   -367.56835663 </i>
   </energy>
  </scstep>
  <scstep>
   <time name="dav">  643.57  643.04</time>
   <time name="total">  670.79  670.24</time>
   <energy>
    <i name="e_fr_energy">   -367.58177478 </i>
    <i name="e_wo_entrp">   -367.54148291 </i>
    <i name="e_0_energy">   -367.56834416 </i>
   </energy>
  </scstep>
  <scstep>
   <time name="dav">  644.9741373.94</time>
   <time name="total">  672.8741427.17</time>
   <energy>
    <i name="e_fr_energy">   -367.58175115 </i>
    <i name="e_wo_entrp">   -367.54146316 </i>
    <i name="e_0_energy">   -367.56832182 </i>
   </energy>
  </scstep>
  <scstep>
   <time name="dav">  661.40 1321.24</time>
   <time name="total">  689.29 1376.96</time>
   <energy>
    <i name="e_fr_energy">   -367.58179709 </i>
    <i name="e_wo_entrp">   -367.54151377 </i>
    <i name="e_0_energy">   -367.56836932 </i>
   </energy>
  </scstep>
  <scstep>
   <time name="dav">  689.03 1376.38</time>
   <time name="total">  716.85 1431.97</time>
   <energy>
    <i name="e_fr_energy">   -367.58172741 </i>
    <i name="e_wo_entrp">   -367.54144615 </i>
    <i name="e_0_energy">   -367.56830032 </i>
   </energy>
  </scstep>
  <scstep>
   <time name="dav">  741.42 1481.22</time>
   <time name="total">  769.26 1536.84</time>
   <energy>
    <i name="e_fr_energy">   -367.58172179 </i>
    <i name="e_wo_entrp">   -367.54144299 </i>
    <i name="e_0_energy">   -367.56829552 </i>
   </energy>
  </scstep>
  <scstep>
   <time name="dav">  603.91 1206.48</time>
   <time name="total">  634.74 1268.07</time>
   <energy>
    <i name="e_fr_energy">   -367.58172327 </i>
    <i name="e_wo_entrp">   -367.54144602 </i>
    <i name="e_0_energy">   -367.56829752 </i>
   </energy>
  </scstep>
  <scstep>
   <time name="dav">  455.42  909.83</time>
   <time name="total">  486.18  971.31</time>
   <energy>
    <i name="e_fr_energy">   -367.58172170 </i>
    <i name="e_wo_entrp">   -367.54144718 </i>
    <i name="e_0_energy">   -367.56829686 </i>
   </energy>
  </scstep>
  <scstep>
   <time name="dav">  378.96  757.14</time>
   <time name="total">  381.50  762.25</time>
   <energy>
    <i name="alphaZ">   9415.99145534 </i>
    <i name="ewald">-151163.44274241 </i>
    <i name="hartreedc"> -60858.35290442 </i>
    <i name="XCdc">   5619.82732783 </i>
    <i name="pawpsdc"> 171592.80163199 </i>
    <i name="pawaedc">-180635.36151443 </i>
    <i name="eentropy">     -0.04027622 </i>
    <i name="bandstr"> -18352.29613027 </i>
    <i name="atom"> 224013.29143063 </i>
    <i name="e_fr_energy">   -367.58172197 </i>
    <i name="e_wo_entrp">   -367.54144575 </i>
    <i name="e_0_energy">   -367.56829656 </i>
   </energy>
  </scstep>
  <structure>
   <crystal>
    <varray name="basis" >
     <v>       0.00000000       7.15575000       7.15575000 </v>
     <v>       7.15575000       0.00000000       7.15575000 </v>
     <v>       7.15575000       7.15575000       0.00000000 </v>
    </varray>
    <i name="volume">    732.81689501 </i>
    <varray name="rec_basis" >
     <v>      -0.06987388       0.06987388       0.06987388 </v>
     <v>       0.06987388      -0.06987388       0.06987388 </v>
     <v>       0.06987388       0.06987388      -0.06987388 </v>
    </varray>
   </crystal>
   <varray name="positions" >
    <v>      -0.00104811       0.00104811       0.00104811 </v>
    <v>       0.00000000       0.00000000       0.25000000 </v>
    <v>       0.00000000       0.00000000       0.50000000 </v>
    <v>       0.00000000       0.00000000       0.75000000 </v>
    <v>       0.00000000       0.25000000       0.00000000 </v>
    <v>       0.00000000       0.25000000       0.25000000 </v>
    <v>       0.00000000       0.25000000       0.50000000 </v>
    <v>       0.00000000       0.25000000       0.75000000 </v>
    <v>       0.00000000       0.50000000       0.00000000 </v>
    <v>       0.00000000       0.50000000       0.25000000 </v>
    <v>       0.00000000       0.50000000       0.50000000 </v>
    <v>       0.00000000       0.50000000       0.75000000 </v>
    <v>       0.00000000       0.75000000       0.00000000 </v>
    <v>       0.00000000       0.75000000       0.25000000 </v>
    <v>       0.00000000       0.75000000       0.50000000 </v>
    <v>       0.00000000       0.75000000       0.75000000 </v>
    <v>       0.25000000       0.00000000       0.00000000 </v>
    <v>       0.25000000       0.00000000       0.25000000 </v>
    <v>       0.25000000       0.00000000       0.50000000 </v>
    <v>       0.25000000       0.00000000       0.75000000 </v>
    <v>       0.25000000       0.25000000       0.00000000 </v>
    <v>       0.25000000       0.25000000       0.25000000 </v>
    <v>       0.25000000       0.25000000       0.50000000 </v>
    <v>       0.25000000       0.25000000       0.75000000 </v>
    <v>       0.25000000       0.50000000       0.00000000 </v>
    <v>       0.25000000       0.50000000       0.25000000 </v>
    <v>       0.25000000       0.50000000       0.50000000 </v>
    <v>       0.25000000       0.50000000       0.75000000 </v>
    <v>       0.25000000       0.75000000       0.00000000 </v>
    <v>       0.25000000       0.75000000       0.25000000 </v>
    <v>       0.25000000       0.75000000       0.50000000 </v>
    <v>       0.25000000       0.75000000       0.75000000 </v>
    <v>       0.50000000       0.00000000       0.00000000 </v>
    <v>       0.50000000       0.00000000       0.25000000 </v>
    <v>       0.50000000       0.00000000       0.50000000 </v>
    <v>       0.50000000       0.00000000       0.75000000 </v>
    <v>       0.50000000       0.25000000       0.00000000 </v>
    <v>       0.50000000       0.25000000       0.25000000 </v>
    <v>       0.50000000       0.25000000       0.50000000 </v>
    <v>       0.50000000       0.25000000       0.75000000 </v>
    <v>       0.50000000       0.50000000       0.00000000 </v>
    <v>       0.50000000       0.50000000       0.25000000 </v>
    <v>       0.50000000       0.50000000       0.50000000 </v>
    <v>       0.50000000       0.50000000       0.75000000 </v>
    <v>       0.50000000       0.75000000       0.00000000 </v>
    <v>       0.50000000       0.75000000       0.25000000 </v>
    <v>       0.50000000       0.75000000       0.50000000 </v>
    <v>       0.50000000       0.75000000       0.75000000 </v>
    <v>       0.75000000       0.00000000       0.00000000 </v>
    <v>       0.75000000       0.00000000       0.25000000 </v>
    <v>       0.75000000       0.00000000       0.50000000 </v>
    <v>       0.75000000       0.00000000       0.75000000 </v>
    <v>       0.75000000       0.25000000       0.00000000 </v>
    <v>       0.75000000       0.25000000       0.25000000 </v>
    <v>       0.75000000       0.25000000       0.50000000 </v>
    <v>       0.75000000       0.25000000       0.75000000 </v>
    <v>       0.75000000       0.50000000       0.00000000 </v>
    <v>       0.75000000       0.50000000       0.25000000 </v>
    <v>       0.75000000       0.50000000       0.50000000 </v>
    <v>       0.75000000       0.50000000       0.75000000 </v>
    <v>       0.75000000       0.75000000       0.00000000 </v>
    <v>       0.75000000       0.75000000       0.25000000 </v>
    <v>       0.75000000       0.75000000       0.50000000 </v>
    <v>       0.75000000       0.75000000       0.75000000 </v>
   </varray>
  </structure>
  <varray name="forces" >
   <v>      -0.11615531      -0.00000000       0.00000000 </v>
   <v>       0.01301292       0.01445813       0.00000000 </v>
   <v>       0.00016675       0.00024669      -0.00000000 </v>
   <v>       0.01245614       0.01367721       0.00000000 </v>
   <v>       0.01301292      -0.00000000       0.01445813 </v>
   <v>       0.00106251       0.00075296       0.00075296 </v>
   <v>       0.00024312       0.00069245      -0.00032139 </v>
   <v>       0.00006705       0.00011742      -0.00011742 </v>
   <v>       0.00016675      -0.00000000       0.00024669 </v>
   <v>       0.00024312      -0.00032139       0.00069245 </v>
   <v>       0.00008264      -0.00000000       0.00000000 </v>
   <v>       0.00025423      -0.00035993       0.00076784 </v>
   <v>       0.01245614      -0.00000000       0.01367721 </v>
   <v>       0.00006705      -0.00011742       0.00011742 </v>
   <v>       0.00025423       0.00076784      -0.00035993 </v>
   <v>       0.00097440       0.00070955       0.00070955 </v>
   <v>       0.00006705      -0.00011742      -0.00011742 </v>
   <v>       0.00025423       0.00076784       0.00035993 </v>
   <v>       0.00097440       0.00070955      -0.00070955 </v>
   <v>       0.01245614      -0.00000000      -0.01367721 </v>
   <v>       0.00025423       0.00035993       0.00076784 </v>
   <v>       0.00017264      -0.00000000      -0.00000000 </v>
   <v>       0.00024312       0.00032139      -0.00069245 </v>
   <v>      -0.00059028      -0.00000000       0.00004682 </v>
   <v>       0.00097440      -0.00070955       0.00070955 </v>
   <v>       0.00024312      -0.00069245       0.00032139 </v>
   <v>      -0.00019835      -0.00002297      -0.00002297 </v>
   <v>       0.00012374      -0.00000000      -0.00010245 </v>
   <v>       0.01245614      -0.01367721       0.00000000 </v>
   <v>      -0.00059028       0.00004682       0.00000000 </v>
   <v>       0.00012374      -0.00010245       0.00000000 </v>
   <v>       0.00175539      -0.00000000       0.00000000 </v>
   <v>       0.00008264      -0.00000000       0.00000000 </v>
   <v>       0.00025423      -0.00035993      -0.00076784 </v>
   <v>       0.00016675      -0.00000000      -0.00024669 </v>
   <v>       0.00024312      -0.00032139      -0.00069245 </v>
   <v>       0.00025423      -0.00076784      -0.00035993 </v>
   <v>       0.00106251      -0.00075296      -0.00075296 </v>
   <v>       0.00008700      -0.00000000       0.00005006 </v>
   <v>      -0.00019835       0.00002297      -0.00002297 </v>
   <v>       0.00016675      -0.00024669       0.00000000 </v>
   <v>       0.00008700       0.00005006       0.00000000 </v>
   <v>      -0.00056969      -0.00000000       0.00000000 </v>
   <v>       0.00012374       0.00010245       0.00000000 </v>
   <v>       0.00024312      -0.00069245      -0.00032139 </v>
   <v>      -0.00019835      -0.00002297       0.00002297 </v>
   <v>       0.00012374      -0.00000000       0.00010245 </v>
   <v>       0.00097440      -0.00070955      -0.00070955 </v>
   <v>       0.00006705       0.00011742       0.00011742 </v>
   <v>       0.01301292      -0.00000000      -0.01445813 </v>
   <v>       0.00106251       0.00075296      -0.00075296 </v>
   <v>       0.00024312       0.00069245       0.00032139 </v>
   <v>       0.01301292      -0.01445813       0.00000000 </v>
   <v>       0.00183280      -0.00000000       0.00000000 </v>
   <v>       0.00008700      -0.00005006       0.00000000 </v>
   <v>      -0.00059028      -0.00004682       0.00000000 </v>
   <v>       0.00106251      -0.00075296       0.00075296 </v>
   <v>       0.00008700      -0.00000000      -0.00005006 </v>
   <v>      -0.00019835       0.00002297       0.00002297 </v>
   <v>       0.00025423      -0.00076784       0.00035993 </v>
   <v>       0.00024312       0.00032139       0.00069245 </v>
   <v>      -0.00059028      -0.00000000      -0.00004682 </v>
   <v>       0.00025423       0.00035993      -0.00076784 </v>
   <v>       0.00017264      -0.00000000       0.00000000 </v>
  </varray>
  <varray name="stress" >
   <v>    -221.69320777      -0.00000000       0.00000000 </v>
   <v>       0.00000000    -221.68785833       0.00000000 </v>
   <v>      -0.00000000       0.00000000    -221.68785833 </v>
  </varray>
  <energy>
   <i name="e_fr_energy">   -367.58172197 </i>
   <i name="e_wo_entrp">   -367.56829656 </i>
   <i name="e_0_energy">     -0.04027622 </i>
  </energy>
  <kpoints>
   <generation param="Gamma">
    <v type="int" name="divisions">       3        3        3 </v>
    <v name="usershift">      0.00000000       0.00000000       0.00000000 </v>
    <v name="genvec1">      0.33333333       0.00000000       0.00000000 </v>
    <v name="genvec2">      0.00000000       0.33333333       0.00000000 </v>
    <v name="genvec3">      0.00000000       0.00000000       0.33333333 </v>
    <v name="shift">      0.00000000       0.00000000       0.00000000 </v>
   </generation>
   <varray name="kpointlist" >
    <v>       0.00000000       0.00000000       0.00000000 </v>
    <v>       0.33333333       0.00000000       0.00000000 </v>
    <v>       0.33333333       0.33333333       0.00000000 </v>
    <v>      -0.33333333       0.33333333       0.00000000 </v>
    <v>       0.00000000       0.33333333       0.33333333 </v>
    <v>      -0.33333333       0.33333333       0.33333333 </v>
   </varray>
   <varray name="weights" >
    <v>       0.03703704 </v>
    <v>       0.29629630 </v>
    <v>       0.14814815 </v>
    <v>       0.29629630 </v>
    <v>       0.07407407 </v>
    <v>       0.14814815 </v>
   </varray>
  </kpoints>
  <time name="totalsc"> 9973.1855180.83</time>
 </calculation>
 <calculation>
  <scstep>
   <time name="dav">  772.10 1542.43</time>
   <time name="total">  800.07 1598.30</time>
   <energy>
    <i name="alphaZ">   9415.99145534 </i>
    <i name="ewald">-151163.44274241 </i>
    <i name="hartreedc"> -60858.39155631 </i>
    <i name="XCdc">   5619.82948186 </i>
    <i name="pawpsdc"> 171592.78071691 </i>
    <i name="pawaedc">-180635.33946528 </i>
    <i name="eentropy">     -0.04023469 </i>
    <i name="bandstr"> -18351.97275189 </i>
    <i name="atom"> 224013.29143063 </i>
    <i name="e_fr_energy">   -367.29366584 </i>
    <i name="e_wo_entrp">   -367.25343115 </i>
    <i name="e_0_energy">   -367.28025428 </i>
   </energy>
  </scstep>
  <scstep>
   <time name="dav">  631.38 1261.41</time>
   <time name="total">  659.26 1317.09</time>
   <energy>
    <i name="e_fr_energy">   -367.59397543 </i>
    <i name="e_wo_entrp">   -367.55361241 </i>
    <i name="e_0_energy">   -367.58052109 </i>
   </energy>
  </scstep>
  <scstep>
   <time name="dav">  716.98 1432.33</time>
   <time name="total">  744.83 1487.98</time>
   <energy>
    <i name="e_fr_energy">   -367.58545898 </i>
    <i name="e_wo_entrp">   -367.54485992 </i>
    <i name="e_0_energy">   -367.57192596 </i>
   </energy>
  </scstep>
  <scstep>
   <time name="dav">  724.94 1448.36</time>
   <time name="total">  752.80 1504.05</time>
   <energy>
    <i name="e_fr_energy">   -367.59034811 </i>
    <i name="e_wo_entrp">   -367.54987933 </i>
    <i name="e_0_energy">   -367.57685852 </i>
   </energy>
  </scstep>
  <scstep>
   <time name="dav">  654.42 1307.45</time>
   <time name="total">  682.36 1363.25</time>
   <energy>
    <i name="e_fr_energy">   -367.58239016 </i>
    <i name="e_wo_entrp">   -367.54204104 </i>
    <i name="e_0_energy">   -367.56894045 </i>
   </energy>
  </scstep>
  <scstep>
   <time name="dav">  740.73 1479.72</time>
   <time name="total">  768.66 1535.94</time>
   <energy>
    <i name="e_fr_energy">   -367.58224474 </i>
    <i name="e_wo_entrp">   -367.54190875 </i>
    <i name="e_0_energy">   -367.56879941 </i>
   </energy>
  </scstep>
  <scstep>
   <time name="dav">  666.41 1331.26</time>
   <time name="total">  693.25 1384.89</time>
   <energy>
    <i name="e_fr_energy">   -367.58212064 </i>
    <i name="e_wo_entrp">   -367.54180406 </i>
    <i name="e_0_energy">   -367.56868178 </i>
   </energy>
  </scstep>
  <scstep>
   <time name="dav">  672.98 1344.57</time>
   <time name="total">  699.79 1398.12</time>
   <energy>
    <i name="e_fr_energy">   -367.58199231 </i>
    <i name="e_wo_entrp">   -367.54169301 </i>
    <i name="e_0_energy">   -367.56855921 </i>
   </energy>
  </scstep>
  <scstep>
   <time name="dav">  671.17 1340.89</time>
   <time name="total">  698.07 1394.63</time>
   <energy>
    <i name="e_fr_energy">   -367.58212624 </i>
    <i name="e_wo_entrp">   -367.54183925 </i>
    <i name="e_0_energy">   -367.56869724 </i>
   </energy>
  </scstep>
  <scstep>
   <time name="dav">  748.74 1495.78</time>
   <time name="total">  775.58 1549.38</time>
   <energy>
    <i name="e_fr_energy">   -367.58176866 </i>
    <i name="e_wo_entrp">   -367.54150267 </i>
    <i name="e_0_energy">   -367.56834666 </i>
   </energy>
  </scstep>
  <scstep>
   <time name="dav">  760.13 1518.58</time>
   <time name="total">  787.06 1572.42</time>
   <energy>
    <i name="e_fr_energy">   -367.58172094 </i>
    <i name="e_wo_entrp">   -367.54145476 </i>
    <i name="e_0_energy">   -367.56829888 </i>
   </energy>
  </scstep>
  <scstep>
   <time name="dav">  711.02 1162.93</time>
   <time name="total">  735.75 1190.15</time>
   <energy>
    <i name="e_fr_energy">   -367.58173477 </i>
    <i name="e_wo_entrp">   -367.54146608 </i>
    <i name="e_0_energy">   -367.56831187 </i>
   </energy>
  </scstep>
  <scstep>
   <time name="dav">  606.78  679.78</time>
   <time name="total">  633.66  706.65</time>
   <energy>
    <i name="e_fr_energy">   -367.58172152 </i>
    <i name="e_wo_entrp">   -367.54145043 </i>
    <i name="e_0_energy">   -367.56829783 </i>
   </energy>
  </scstep>
  <scstep>
   <time name="dav">  589.62  589.13</time>
   <time name="total">  616.75  616.24</time>
   <energy>
    <i name="e_fr_energy">   -367.58172463 </i>
    <i name="e_wo_entrp">   -367.54145059 </i>
    <i name="e_0_energy">   -367.56829995 </i>
   </energy>
  </scstep>
  <scstep>
   <time name="dav">  441.61  518.87</time>
   <time name="total">  468.80  570.79</time>
   <energy>
    <i name="e_fr_energy">   -367.58172166 </i>
    <i name="e_wo_entrp">   -367.54144298 </i>
    <i name="e_0_energy">   -367.56829543 </i>
   </energy>
  </scstep>
  <scstep>
   <time name="dav">  369.95  562.62</time>
   <time name="total">  372.40  567.50</time>
   <energy>
    <i name="alphaZ">   9415.99145534 </i>
    <i name="ewald">-151163.44274241 </i>
    <i name="hartreedc"> -60858.34323428 </i>
    <i name="XCdc">   5619.82694891 </i>
    <i name="pawpsdc"> 171592.78394860 </i>
    <i name="pawaedc">-180635.34256728 </i>
    <i name="eentropy">     -0.04027850 </i>
    <i name="bandstr"> -18352.30668288 </i>
    <i name="atom"> 224013.29143063 </i>
    <i name="e_fr_energy">   -367.58172188 </i>
    <i name="e_wo_entrp">   -367.54144338 </i>
    <i name="e_0_energy">   -367.56829571 </i>
   </energy>
  </scstep>
  <structure>
   <crystal>
    <varray name="basis" >
     <v>       0.00000000       7.15575000       7.15575000 </v>
     <v>       7.15575000       0.00000000       7.15575000 </v>
     <v>       7.15575000       7.15575000       0.00000000 </v>
    </varray>
    <i name="volume">    732.81689501 </i>
    <varray name="rec_basis" >
     <v>      -0.06987388       0.06987388       0.06987388 </v>
     <v>       0.06987388      -0.06987388       0.06987388 </v>
     <v>       0.06987388       0.06987388      -0.06987388 </v>
    </varray>
   </crystal>
   <varray name="positions" >
    <v>       0.00104811      -0.00104811      -0.00104811 </v>
    <v>       0.00000000       0.00000000       0.25000000 </v>
    <v>       0.00000000       0.00000000       0.50000000 </v>
    <v>       0.00000000       0.00000000       0.75000000 </v>
    <v>       0.00000000       0.25000000       0.00000000 </v>
    <v>       0.00000000       0.25000000       0.25000000 </v>
    <v>       0.00000000       0.25000000       0.50000000 </v>
    <v>       0.00000000       0.25000000       0.75000000 </v>
    <v>       0.00000000       0.50000000       0.00000000 </v>
    <v>       0.00000000       0.50000000       0.25000000 </v>
    <v>       0.00000000       0.50000000       0.50000000 </v>
    <v>       0.00000000       0.50000000       0.75000000 </v>
    <v>       0.00000000       0.75000000       0.00000000 </v>
    <v>       0.00000000       0.75000000       0.25000000 </v>
    <v>       0.00000000       0.75000000       0.50000000 </v>
    <v>       0.00000000       0.75000000       0.75000000 </v>
    <v>       0.25000000       0.00000000       0.00000000 </v>
    <v>       0.25000000       0.00000000       0.25000000 </v>
    <v>       0.25000000       0.00000000       0.50000000 </v>
    <v>       0.25000000       0.00000000       0.75000000 </v>
    <v>       0.25000000       0.25000000       0.00000000 </v>
    <v>       0.25000000       0.25000000       0.25000000 </v>
    <v>       0.25000000       0.25000000       0.50000000 </v>
    <v>       0.25000000       0.25000000       0.75000000 </v>
    <v>       0.25000000       0.50000000       0.00000000 </v>
    <v>       0.25000000       0.50000000       0.25000000 </v>
    <v>       0.25000000       0.50000000       0.50000000 </v>
    <v>       0.25000000       0.50000000       0.75000000 </v>
    <v>       0.25000000       0.75000000       0.00000000 </v>
    <v>       0.25000000       0.75000000       0.25000000 </v>
    <v>       0.25000000       0.75000000       0.50000000 </v>
    <v>       0.25000000       0.75000000       0.75000000 </v>
    <v>       0.50000000       0.00000000       0.00000000 </v>
    <v>       0.50000000       0.00000000       0.25000000 </v>
    <v>       0.50000000       0.00000000       0.50000000 </v>
    <v>       0.50000000       0.00000000       0.75000000 </v>
    <v>       0.50000000       0.25000000       0.00000000 </v>
    <v>       0.50000000       0.25000000       0.25000000 </v>
    <v>       0.50000000       0.25000000       0.50000000 </v>
    <v>       0.50000000       0.25000000       0.75000000 </v>
    <v>       0.50000000       0.50000000       0.00000000 </v>
    <v>       0.50000000       0.50000000       0.25000000 </v>
    <v>       0.50000000       0.50000000       0.50000000 </v>
    <v>       0.50000000       0.50000000       0.75000000 </v>
    <v>       0.50000000       0.75000000       0.00000000 </v>
    <v>       0.50000000       0.75000000       0.25000000 </v>
    <v>       0.50000000       0.75000000       0.50000000 </v>
    <v>       0.50000000       0.75000000       0.75000000 </v>
    <v>       0.75000000       0.00000000       0.00000000 </v>
    <v>       0.75000000       0.00000000       0.25000000 </v>
    <v>       0.75000000       0.00000000       0.50000000 </v>
    <v>       0.75000000       0.00000000       0.75000000 </v>
    <v>       0.75000000       0.25000000       0.00000000 </v>
    <v>       0.75000000       0.25000000       0.25000000 </v>
    <v>       0.75000000       0.25000000       0.50000000 </v>
    <v>       0.75000000       0.25000000       0.75000000 </v>
    <v>       0.75000000       0.50000000       0.00000000 </v>
    <v>       0.75000000       0.50000000       0.25000000 </v>
    <v>       0.75000000       0.50000000       0.50000000 </v>
    <v>       0.75000000       0.50000000       0.75000000 </v>
    <v>       0.75000000       0.75000000       0.00000000 </v>
    <v>       0.75000000       0.75000000       0.25000000 </v>
    <v>       0.75000000       0.75000000       0.50000000 </v>
    <v>       0.75000000       0.75000000       0.75000000 </v>
   </varray>
  </structure>
  <varray name="forces" >
[...]
       <r>    22.0163     0.0000   646.0000 </r>
       <r>    22.2993     0.0000   646.0000 </r>
       <r>    22.5822     0.0000   646.0000 </r>
       <r>    22.8652     0.0000   646.0000 </r>
       <r>    23.1481     0.0000   646.0000 </r>
       <r>    23.4310     0.0000   646.0000 </r>
       <r>    23.7140     0.0000   646.0000 </r>
       <r>    23.9969     0.0000   646.0000 </r>
       <r>    24.2799     0.0000   646.0000 </r>
      </set>
      <set comment="spin 2">
       <r>   -60.6034     0.0000     0.0000 </r>
       <r>   -60.3205     0.0000     0.0000 </r>
       <r>   -60.0376     0.0000     0.0000 </r>
       <r>   -59.7546     0.0000     0.0000 </r>
       <r>   -59.4717     0.0000     0.0000 </r>
       <r>   -59.1887     0.0000     0.0000 </r>
       <r>   -58.9058     0.0000     0.0000 </r>
       <r>   -58.6228     0.0000     0.0000 </r>
       <r>   -58.3399     0.0000     0.0000 </r>
       <r>   -58.0569     0.0000     0.0000 </r>
       <r>   -57.7740     0.0000     0.0000 </r>
       <r>   -57.4911    -0.0000    -0.0000 </r>
       <r>   -57.2081    -0.0000    -0.0000 </r>
       <r>   -56.9252    -0.0000    -0.0000 </r>
       <r>   -56.6422    -0.0000    -0.0000 </r>
       <r>   -56.3593    -0.0957    -0.0271 </r>
       <r>   -56.0763   -13.6664    -3.8939 </r>
       <r>   -55.7934   226.1407    60.0913 </r>
       <r>   -55.5104   482.4817   196.6069 </r>
       <r>   -55.2275   -15.4273   192.2418 </r>
       <r>   -54.9446    -0.8542   192.0001 </r>
       <r>   -54.6616    -0.0003   192.0000 </r>
       <r>   -54.3787    -0.0000   192.0000 </r>
       <r>   -54.0957     0.0000   192.0000 </r>
       <r>   -53.8128     0.0000   192.0000 </r>
       <r>   -53.5298     0.0000   192.0000 </r>
       <r>   -53.2469     0.0000   192.0000 </r>
       <r>   -52.9639     0.0000   192.0000 </r>
       <r>   -52.6810     0.0000   192.0000 </r>
       <r>   -52.3981     0.0000   192.0000 </r>
       <r>   -52.1151     0.0000   192.0000 </r>
       <r>   -51.8322     0.0000   192.0000 </r>
       <r>   -51.5492     0.0000   192.0000 </r>
       <r>   -51.2663     0.0000   192.0000 </r>
       <r>   -50.9833     0.0000   192.0000 </r>
       <r>   -50.7004     0.0000   192.0000 </r>
       <r>   -50.4174     0.0000   192.0000 </r>
       <r>   -50.1345     0.0000   192.0000 </r>
       <r>   -49.8516     0.0000   192.0000 </r>
       <r>   -49.5686     0.0000   192.0000 </r>
       <r>   -49.2857     0.0000   192.0000 </r>
       <r>   -49.0027     0.0000   192.0000 </r>
       <r>   -48.7198     0.0000   192.0000 </r>
       <r>   -48.4368     0.0000   192.0000 </r>
       <r>   -48.1539     0.0000   192.0000 </r>
       <r>   -47.8709     0.0000   192.0000 </r>
       <r>   -47.5880     0.0000   192.0000 </r>
       <r>   -47.3051     0.0000   192.0000 </r>
       <r>   -47.0221     0.0000   192.0000 </r>
       <r>   -46.7392     0.0000   192.0000 </r>
       <r>   -46.4562     0.0000   192.0000 </r>
       <r>   -46.1733     0.0000   192.0000 </r>
       <r>   -45.8903     0.0000   192.0000 </r>
       <r>   -45.6074     0.0000   192.0000 </r>
       <r>   -45.3244     0.0000   192.0000 </r>
       <r>   -45.0415     0.0000   192.0000 </r>
       <r>   -44.7586     0.0000   192.0000 </r>
       <r>   -44.4756     0.0000   192.0000 </r>
       <r>   -44.1927     0.0000   192.0000 </r>
       <r>   -43.9097     0.0000   192.0000 </r>
       <r>   -43.6268     0.0000   192.0000 </r>
       <r>   -43.3438     0.0000   192.0000 </r>
       <r>   -43.0609     0.0000   192.0000 </r>
       <r>   -42.7779     0.0000   192.0000 </r>
       <r>   -42.4950     0.0000   192.0000 </r>
       <r>   -42.2121     0.0000   192.0000 </r>
       <r>   -41.9291     0.0000   192.0000 </r>
       <r>   -41.6462     0.0000   192.0000 </r>
       <r>   -41.3632     0.0000   192.0000 </r>
       <r>   -41.0803     0.0000   192.0000 </r>
       <r>   -40.7973     0.0000   192.0000 </r>
       <r>   -40.5144     0.0000   192.0000 </r>
       <r>   -40.2314     0.0000   192.0000 </r>
       <r>   -39.9485     0.0000   192.0000 </r>
       <r>   -39.6656     0.0000   192.0000 </r>
       <r>   -39.3826     0.0000   192.0000 </r>
       <r>   -39.0997     0.0000   192.0000 </r>
       <r>   -38.8167     0.0000   192.0000 </r>
       <r>   -38.5338     0.0000   192.0000 </r>
       <r>   -38.2508     0.0000   192.0000 </r>
       <r>   -37.9679     0.0000   192.0000 </r>
       <r>   -37.6849     0.0000   192.0000 </r>
       <r>   -37.4020     0.0000   192.0000 </r>
       <r>   -37.1191     0.0000   192.0000 </r>
       <r>   -36.8361     0.0000   192.0000 </r>
       <r>   -36.5532     0.0000   192.0000 </r>
       <r>   -36.2702     0.0000   192.0000 </r>
       <r>   -35.9873     0.0000   192.0000 </r>
       <r>   -35.7043     0.0000   192.0000 </r>
       <r>   -35.4214     0.0000   192.0000 </r>
       <r>   -35.1384     0.0000   192.0000 </r>
       <r>   -34.8555     0.0000   192.0000 </r>
       <r>   -34.5726     0.0000   192.0000 </r>
       <r>   -34.2896     0.0000   192.0000 </r>
       <r>   -34.0067     0.0000   192.0000 </r>
       <r>   -33.7237     0.0000   192.0000 </r>
       <r>   -33.4408     0.0000   192.0000 </r>
       <r>   -33.1578     0.0000   192.0000 </r>
       <r>   -32.8749     0.0000   192.0000 </r>
       <r>   -32.5919     0.0000   192.0000 </r>
       <r>   -32.3090     0.0000   192.0000 </r>
       <r>   -32.0261     0.0000   192.0000 </r>
       <r>   -31.7431     0.0000   192.0000 </r>
       <r>   -31.4602     0.0000   192.0000 </r>
       <r>   -31.1772     0.0000   192.0000 </r>
       <r>   -30.8943     0.0000   192.0000 </r>
       <r>   -30.6113     0.0000   192.0000 </r>
       <r>   -30.3284     0.0000   192.0000 </r>
       <r>   -30.0455     0.0000   192.0000 </r>
       <r>   -29.7625     0.0000   192.0000 </r>
       <r>   -29.4796     0.0000   192.0000 </r>
       <r>   -29.1966     0.0000   192.0000 </r>
       <r>   -28.9137     0.0000   192.0000 </r>
       <r>   -28.6307     0.0000   192.0000 </r>
       <r>   -28.3478     0.0000   192.0000 </r>
       <r>   -28.0648     0.0000   192.0000 </r>
       <r>   -27.7819     0.0000   192.0000 </r>
       <r>   -27.4990     0.0000   192.0000 </r>
       <r>   -27.2160     0.0000   192.0000 </r>
       <r>   -26.9331     0.0000   192.0000 </r>
       <r>   -26.6501     0.0000   192.0000 </r>
       <r>   -26.3672     0.0000   192.0000 </r>
       <r>   -26.0842     0.0000   192.0000 </r>
       <r>   -25.8013     0.0000   192.0000 </r>
       <r>   -25.5183     0.0000   192.0000 </r>
       <r>   -25.2354     0.0000   192.0000 </r>
       <r>   -24.9525     0.0000   192.0000 </r>
       <r>   -24.6695     0.0000   192.0000 </r>
       <r>   -24.3866     0.0000   192.0000 </r>
       <r>   -24.1036     0.0000   192.0000 </r>
       <r>   -23.8207     0.0000   192.0000 </r>
       <r>   -23.5377     0.0000   192.0000 </r>
       <r>   -23.2548     0.0000   192.0000 </r>
       <r>   -22.9718     0.0000   192.0000 </r>
       <r>   -22.6889     0.0000   192.0000 </r>
       <r>   -22.4060     0.0000   192.0000 </r>
       <r>   -22.1230     0.0000   192.0000 </r>
       <r>   -21.8401     0.0000   192.0000 </r>
       <r>   -21.5571     0.0000   192.0000 </r>
       <r>   -21.2742     0.0000   192.0000 </r>
       <r>   -20.9912     0.0000   192.0000 </r>
       <r>   -20.7083     0.0000   192.0000 </r>
       <r>   -20.4253     0.0000   192.0000 </r>
       <r>   -20.1424     0.0000   192.0000 </r>
       <r>   -19.8595     0.0000   192.0000 </r>
       <r>   -19.5765     0.0000   192.0000 </r>
       <r>   -19.2936     0.0000   192.0000 </r>
       <r>   -19.0106     0.0000   192.0000 </r>
       <r>   -18.7277     0.0000   192.0000 </r>
       <r>   -18.4447     0.0000   192.0000 </r>
       <r>   -18.1618     0.0000   192.0000 </r>
       <r>   -17.8788     0.0000   192.0000 </r>
       <r>   -17.5959     0.0000   192.0000 </r>
       <r>   -17.3130     0.0000   192.0000 </r>
       <r>   -17.0300     0.0000   192.0000 </r>
       <r>   -16.7471     0.0000   192.0000 </r>
       <r>   -16.4641     0.0000   192.0000 </r>
       <r>   -16.1812     0.0000   192.0000 </r>
       <r>   -15.8982     0.0000   192.0000 </r>
       <r>   -15.6153     0.0000   192.0000 </r>
       <r>   -15.3323     0.0000   192.0000 </r>
       <r>   -15.0494     0.0000   192.0000 </r>
       <r>   -14.7665     0.0000   192.0000 </r>
       <r>   -14.4835     0.0000   192.0000 </r>
       <r>   -14.2006     0.0000   192.0000 </r>
       <r>   -13.9176     0.0000   192.0000 </r>
       <r>   -13.6347     0.0000   192.0000 </r>
       <r>   -13.3517     0.0000   192.0000 </r>
       <r>   -13.0688     0.0000   192.0000 </r>
       <r>   -12.7858     0.0000   192.0000 </r>
       <r>   -12.5029     0.0000   192.0000 </r>
       <r>   -12.2200     0.0000   192.0000 </r>
       <r>   -11.9370     0.0000   192.0000 </r>
       <r>   -11.6541     0.0000   192.0000 </r>
       <r>   -11.3711     0.0000   192.0000 </r>
       <r>   -11.0882     0.0000   192.0000 </r>
       <r>   -10.8052     0.0000   192.0000 </r>
       <r>   -10.5223     0.0000   192.0000 </r>
       <r>   -10.2393     0.0000   192.0000 </r>
       <r>    -9.9564     0.0000   192.0000 </r>
       <r>    -9.6735     0.0000   192.0000 </r>
       <r>    -9.3905     0.0000   192.0000 </r>
       <r>    -9.1076     0.0000   192.0000 </r>
       <r>    -8.8246     0.0000   192.0000 </r>
       <r>    -8.5417     0.0000   192.0000 </r>
       <r>    -8.2587     0.0000   192.0000 </r>
       <r>    -7.9758     0.0000   192.0000 </r>
       <r>    -7.6928     0.0000   192.0000 </r>
       <r>    -7.4099     0.0000   192.0000 </r>
       <r>    -7.1270     0.0000   192.0000 </r>
       <r>    -6.8440     0.0000   192.0000 </r>
       <r>    -6.5611     0.0000   192.0000 </r>
       <r>    -6.2781     0.0000   192.0000 </r>
       <r>    -5.9952     0.0000   192.0000 </r>
       <r>    -5.7122     0.0000   192.0000 </r>
       <r>    -5.4293     0.0000   192.0000 </r>
       <r>    -5.1463     0.0000   192.0000 </r>
       <r>    -4.8634     0.0000   192.0000 </r>
       <r>    -4.5805     0.0000   192.0000 </r>
       <r>    -4.2975     0.0000   192.0000 </r>
       <r>    -4.0146     0.0000   192.0000 </r>
       <r>    -3.7316     0.0000   192.0000 </r>
       <r>    -3.4487     0.0000   192.0000 </r>
       <r>    -3.1657    -0.0000   192.0000 </r>
       <r>    -2.8828    -0.0000   192.0000 </r>
       <r>    -2.5998    -0.0000   192.0000 </r>
       <r>    -2.3169    -0.0000   192.0000 </r>
       <r>    -2.0340    -0.0001   192.0000 </r>
       <r>    -1.7510    -0.0056   191.9984 </r>
       <r>    -1.4681     0.0351   192.0083 </r>
       <r>    -1.1851     1.1402   192.3309 </r>
       <r>    -0.9022     1.0322   192.6230 </r>
       <r>    -0.6192     2.2473   193.2589 </r>
       <r>    -0.3363     3.3158   194.1971 </r>
       <r>    -0.0533     0.6561   194.3827 </r>
       <r>     0.2296     5.3274   195.8901 </r>
       <r>     0.5125     3.1157   196.7716 </r>
       <r>     0.7955     4.6495   198.0872 </r>
       <r>     1.0784     1.1023   198.3991 </r>
       <r>     1.3614     8.4215   200.7819 </r>
       <r>     1.6443     5.0797   202.2192 </r>
       <r>     1.9273     6.5667   204.0772 </r>
       <r>     2.2102     3.1115   204.9575 </r>
       <r>     2.4932    10.6865   207.9812 </r>
       <r>     2.7761    13.2835   211.7397 </r>
       <r>     3.0590    10.8402   214.8069 </r>
       <r>     3.3420    22.4061   221.1466 </r>
       <r>     3.6249    38.9214   232.1592 </r>
       <r>     3.9079    26.0962   239.5430 </r>
       <r>     4.1908    54.1124   254.8538 </r>
       <r>     4.4738    58.0706   271.2845 </r>
       <r>     4.7567    53.4881   286.4187 </r>
       <r>     5.0397    57.8730   302.7935 </r>
       <r>     5.3226    76.1646   324.3438 </r>
       <r>     5.6055    88.5002   349.3845 </r>
       <r>     5.8885    99.8136   377.6262 </r>
       <r>     6.1714    79.6239   400.1553 </r>
       <r>     6.4544    73.1635   420.8565 </r>
       <r>     6.7373    91.0567   446.6205 </r>
       <r>     7.0203    76.8648   468.3689 </r>
       <r>     7.3032    94.3144   495.0547 </r>
       <r>     7.5862   103.3116   524.2861 </r>
       <r>     7.8691    31.8562   533.2996 </r>
       <r>     8.1520    14.0706   537.2808 </r>
       <r>     8.4350     5.3994   538.8086 </r>
       <r>     8.7179    12.4437   542.3294 </r>
       <r>     9.0009    12.8205   545.9569 </r>
       <r>     9.2838    12.2995   549.4370 </r>
       <r>     9.5668     5.6472   551.0349 </r>
       <r>     9.8497     9.0254   553.5885 </r>
       <r>    10.1327    10.4063   556.5329 </r>
       <r>    10.4156     7.3531   558.6135 </r>
       <r>    10.6985    11.9578   561.9969 </r>
       <r>    10.9815     2.9768   562.8391 </r>
       <r>    11.2644    11.2717   566.0284 </r>
       <r>    11.5474     6.2840   567.8064 </r>
       <r>    11.8303    -0.4032   567.6923 </r>
       <r>    12.1133     6.5080   569.5337 </r>
       <r>    12.3962     8.3559   571.8980 </r>
       <r>    12.6792     3.8325   572.9823 </r>
       <r>    12.9621     2.4426   573.6735 </r>
       <r>    13.2450    12.9036   577.3245 </r>
       <r>    13.5280     7.7815   579.5262 </r>
       <r>    13.8109    11.0601   582.6556 </r>
       <r>    14.0939     6.2052   584.4113 </r>
       <r>    14.3768     8.2451   586.7442 </r>
       <r>    14.6598    10.3346   589.6683 </r>
       <r>    14.9427     8.6748   592.1228 </r>
       <r>    15.2257    10.0335   594.9617 </r>
       <r>    15.5086    11.1772   598.1242 </r>
       <r>    15.7915     4.7155   599.4585 </r>
       <r>    16.0745     7.2017   601.4961 </r>
       <r>    16.3574     8.2763   603.8379 </r>
       <r>    16.6404     8.7629   606.3173 </r>
       <r>    16.9233     6.6049   608.1861 </r>
       <r>    17.2063    11.9280   611.5611 </r>
       <r>    17.4892     9.0351   614.1175 </r>
       <r>    17.7722    18.3807   619.3182 </r>
       <r>    18.0551    15.2987   623.6469 </r>
       <r>    18.3380     6.0809   625.3675 </r>
       <r>    18.6210    15.6523   629.7962 </r>
       <r>    18.9039    12.5823   633.3563 </r>
       <r>    19.1869     5.9550   635.0412 </r>
       <r>    19.4698    12.3795   638.5440 </r>
       <r>    19.7528     8.3536   640.9076 </r>
       <r>    20.0357    13.5438   644.7397 </r>
       <r>    20.3187     2.5573   645.4633 </r>
       <r>    20.6016     1.9261   646.0082 </r>
       <r>    20.8845    -0.0232   646.0017 </r>
       <r>    21.1675    -0.0059   646.0000 </r>
       <r>    21.4504    -0.0000   646.0000 </r>
       <r>    21.7334    -0.0000   646.0000 </r>
       <r>    22.0163     0.0000   646.0000 </r>
       <r>    22.2993     0.0000   646.0000 </r>
       <r>    22.5822     0.0000   646.0000 </r>
       <r>    22.8652     0.0000   646.0000 </r>
       <r>    23.1481     0.0000   646.0000 </r>
       <r>    23.4310     0.0000   646.0000 </r>
       <r>    23.7140     0.0000   646.0000 </r>
       <r>    23.9969     0.0000   646.0000 </r>
       <r>    24.2799     0.0000   646.0000 </r>
      </set>
     </set>
    </array>
   </total>
  </dos>
 </calculation>
 <structure name="finalpos" >
  <crystal>
   <varray name="basis" >
    <v>       0.00000000       7.15575000       7.15575000 </v>
    <v>       7.15575000       0.00000000       7.15575000 </v>
    <v>       7.15575000       7.15575000       0.00000000 </v>
   </varray>
   <i name="volume">    732.81689501 </i>
   <varray name="rec_basis" >
    <v>      -0.06987388       0.06987388       0.06987388 </v>
    <v>       0.06987388      -0.06987388       0.06987388 </v>
    <v>       0.06987388       0.06987388      -0.06987388 </v>
   </varray>
  </crystal>
  <varray name="positions" >
   <v>       0.00209622      -0.00209622      -0.00209622 </v>
   <v>       0.00000000       0.00000000       0.25000000 </v>
   <v>       0.00000000       0.00000000       0.50000000 </v>
   <v>       0.00000000       0.00000000       0.75000000 </v>
   <v>       0.00000000       0.25000000       0.00000000 </v>
   <v>       0.00000000       0.25000000       0.25000000 </v>
   <v>       0.00000000       0.25000000       0.50000000 </v>
   <v>       0.00000000       0.25000000       0.75000000 </v>
   <v>       0.00000000       0.50000000       0.00000000 </v>
   <v>       0.00000000       0.50000000       0.25000000 </v>
   <v>       0.00000000       0.50000000       0.50000000 </v>
   <v>       0.00000000       0.50000000       0.75000000 </v>
   <v>       0.00000000       0.75000000       0.00000000 </v>
   <v>       0.00000000       0.75000000       0.25000000 </v>
   <v>       0.00000000       0.75000000       0.50000000 </v>
   <v>       0.00000000       0.75000000       0.75000000 </v>
   <v>       0.25000000       0.00000000       0.00000000 </v>
   <v>       0.25000000       0.00000000       0.25000000 </v>
   <v>       0.25000000       0.00000000       0.50000000 </v>
   <v>       0.25000000       0.00000000       0.75000000 </v>
   <v>       0.25000000       0.25000000       0.00000000 </v>
   <v>       0.25000000       0.25000000       0.25000000 </v>
   <v>       0.25000000       0.25000000       0.50000000 </v>
   <v>       0.25000000       0.25000000       0.75000000 </v>
   <v>       0.25000000       0.50000000       0.00000000 </v>
   <v>       0.25000000       0.50000000       0.25000000 </v>
   <v>       0.25000000       0.50000000       0.50000000 </v>
   <v>       0.25000000       0.50000000       0.75000000 </v>
   <v>       0.25000000       0.75000000       0.00000000 </v>
   <v>       0.25000000       0.75000000       0.25000000 </v>
   <v>       0.25000000       0.75000000       0.50000000 </v>
   <v>       0.25000000       0.75000000       0.75000000 </v>
   <v>       0.50000000       0.00000000       0.00000000 </v>
   <v>       0.50000000       0.00000000       0.25000000 </v>
   <v>       0.50000000       0.00000000       0.50000000 </v>
   <v>       0.50000000       0.00000000       0.75000000 </v>
   <v>       0.50000000       0.25000000       0.00000000 </v>
   <v>       0.50000000       0.25000000       0.25000000 </v>
   <v>       0.50000000       0.25000000       0.50000000 </v>
   <v>       0.50000000       0.25000000       0.75000000 </v>
   <v>       0.50000000       0.50000000       0.00000000 </v>
   <v>       0.50000000       0.50000000       0.25000000 </v>
   <v>       0.50000000       0.50000000       0.50000000 </v>
   <v>       0.50000000       0.50000000       0.75000000 </v>
   <v>       0.50000000       0.75000000       0.00000000 </v>
   <v>       0.50000000       0.75000000       0.25000000 </v>
   <v>       0.50000000       0.75000000       0.50000000 </v>
   <v>       0.50000000       0.75000000       0.75000000 </v>
   <v>       0.75000000       0.00000000       0.00000000 </v>
   <v>       0.75000000       0.00000000       0.25000000 </v>
   <v>       0.75000000       0.00000000       0.50000000 </v>
   <v>       0.75000000       0.00000000       0.75000000 </v>
   <v>       0.75000000       0.25000000       0.00000000 </v>
   <v>       0.75000000       0.25000000       0.25000000 </v>
   <v>       0.75000000       0.25000000       0.50000000 </v>
   <v>       0.75000000       0.25000000       0.75000000 </v>
   <v>       0.75000000       0.50000000       0.00000000 </v>
   <v>       0.75000000       0.50000000       0.25000000 </v>
   <v>       0.75000000       0.50000000       0.50000000 </v>
   <v>       0.75000000       0.50000000       0.75000000 </v>
   <v>       0.75000000       0.75000000       0.00000000 </v>
   <v>       0.75000000       0.75000000       0.25000000 </v>
   <v>       0.75000000       0.75000000       0.50000000 </v>
   <v>       0.75000000       0.75000000       0.75000000 </v>
  </varray>
 </structure>
</modeling>
