       N       E                     dE             d eps       ncg     rms          rms(c)
DAV:   1     0.136171176996E+05    0.13617E+05   -0.55311E+05 12144   0.187E+03
DAV:   2     0.739971584730E+03   -0.12877E+05   -0.12483E+05 10336   0.632E+02
DAV:   3    -0.369589712353E+03   -0.11096E+04   -0.91595E+03 10680   0.193E+02
DAV:   4    -0.427478422455E+03   -0.57889E+02   -0.56512E+02 11120   0.439E+01
DAV:   5    -0.428334520357E+03   -0.85610E+00   -0.85553E+00 10952   0.503E+00    0.682E+01
DAV:   6    -0.400135209578E+03    0.28199E+02   -0.65141E+02 10820   0.714E+01    0.543E+01
DAV:   7    -0.365287920176E+03    0.34847E+02   -0.13622E+02 10736   0.327E+01    0.599E+00
DAV:   8    -0.365437131683E+03   -0.14921E+00   -0.12807E+00 10824   0.226E+00    0.316E+00
DAV:   9    -0.365308143627E+03    0.12899E+00   -0.28485E-01 11050   0.910E-01    0.800E-01
DAV:  10    -0.365314017501E+03   -0.58739E-02   -0.14116E-02 11682   0.212E-01    0.362E-01
DAV:  11    -0.365318417811E+03   -0.44003E-02   -0.85800E-03 10924   0.194E-01    0.117E-01
DAV:  12    -0.365318399934E+03    0.17877E-04   -0.82522E-04 10856   0.654E-02    0.206E-02
DAV:  13    -0.365318397359E+03    0.25748E-05   -0.34850E-05 10216   0.123E-02    0.182E-02
DAV:  14    -0.365318376150E+03    0.21209E-04   -0.51788E-06  8600   0.578E-03    0.747E-03
DAV:  15    -0.365318368000E+03    0.81498E-05   -0.15758E-06  5628   0.342E-03    0.507E-04
DAV:  16    -0.365318368174E+03   -0.17395E-06   -0.17989E-07  5420   0.914E-04
   1 F= -.36531837E+03 E0= -.36530816E+03  d E =-.306337E-01  mag=    45.3507
 Found     1 degrees of freedom:
       N       E                     dE             d eps       ncg     rms          rms(c)
DAV:   1    -0.364990498761E+03    0.32787E+00   -0.97103E+00 20558   0.296E+01    0.104E+00
DAV:   2    -0.365334164316E+03   -0.34367E+00   -0.32160E+00 16000   0.294E+00    0.334E+00
DAV:   3    -0.365319638056E+03    0.14526E-01   -0.15116E-01 19418   0.161E+00    0.141E+00
DAV:   4    -0.365327205111E+03   -0.75671E-02   -0.25628E-02 19040   0.116E+00    0.220E+00
DAV:   5    -0.365316197622E+03    0.11007E-01   -0.89299E-03 16808   0.860E-01    0.458E-01
DAV:   6    -0.365315963564E+03    0.23406E-03   -0.13534E-03 19536   0.203E-01    0.294E-01
DAV:   7    -0.365315832834E+03    0.13073E-03   -0.32082E-04 17232   0.117E-01    0.284E-01
DAV:   8    -0.365315671057E+03    0.16178E-03   -0.21249E-04 17152   0.121E-01    0.244E-01
DAV:   9    -0.365315772577E+03   -0.10152E-03   -0.39609E-04 17272   0.182E-01    0.381E-01
DAV:  10    -0.365315366463E+03    0.40611E-03   -0.50805E-04 19768   0.193E-01    0.187E-01
DAV:  11    -0.365315303437E+03    0.63026E-04   -0.18398E-04 20216   0.848E-02    0.646E-02
DAV:  12    -0.365315320659E+03   -0.17223E-04   -0.59351E-05 20488   0.571E-02    0.927E-02
DAV:  13    -0.365315299918E+03    0.20741E-04   -0.34834E-05 17256   0.483E-02    0.233E-02
DAV:  14    -0.365315305166E+03   -0.52481E-05   -0.91003E-06 18560   0.236E-02    0.493E-02
DAV:  15    -0.365315300124E+03    0.50423E-05   -0.53074E-06 14088   0.212E-02    0.120E-02
DAV:  16    -0.365315300274E+03   -0.14927E-06   -0.11881E-06  8200   0.860E-03
   2 F= -.36531530E+03 E0= -.36530509E+03  d E =-.306316E-01  mag=    45.3506
       N       E                     dE             d eps       ncg     rms          rms(c)
DAV:   1    -0.365178504255E+03    0.13680E+00   -0.47490E+00 20654   0.178E+01    0.381E-01
DAV:   2    -0.365318737052E+03   -0.14023E+00   -0.13566E+00 15704   0.183E+00    0.149E+00
DAV:   3    -0.365317724484E+03    0.10126E-02   -0.46869E-02 19400   0.736E-01    0.406E-01
DAV:   4    -0.365319221366E+03   -0.14969E-02   -0.46342E-03 19266   0.446E-01    0.825E-01
DAV:   5    -0.365317711275E+03    0.15101E-02   -0.15430E-03 16730   0.344E-01    0.170E-01
DAV:   6    -0.365317671510E+03    0.39765E-04   -0.20617E-04 18920   0.860E-02    0.935E-02
DAV:   7    -0.365317661401E+03    0.10109E-04   -0.61966E-05 17594   0.570E-02    0.105E-01
DAV:   8    -0.365317635067E+03    0.26334E-04   -0.51759E-05 17360   0.621E-02    0.805E-02
DAV:   9    -0.365317681977E+03   -0.46910E-04   -0.82890E-05 17560   0.852E-02    0.168E-01
DAV:  10    -0.365317613459E+03    0.68517E-04   -0.79601E-05 18520   0.796E-02    0.641E-02
DAV:  11    -0.365317606326E+03    0.71334E-05   -0.24129E-05 20232   0.306E-02    0.225E-02
DAV:  12    -0.365317608010E+03   -0.16839E-05   -0.69349E-06 15952   0.189E-02    0.287E-02
DAV:  13    -0.365317606088E+03    0.19223E-05   -0.33805E-06 12000   0.151E-02    0.726E-03
DAV:  14    -0.365317606353E+03   -0.26522E-06   -0.57528E-07  8040   0.615E-03
   3 F= -.36531761E+03 E0= -.36530740E+03  d E =-.306278E-01  mag=    45.3507
       N       E                     dE             d eps       ncg     rms          rms(c)
DAV:   1    -0.365030576112E+03    0.28703E+00   -0.86384E+00 20704   0.261E+01    0.949E-01
DAV:   2    -0.365331882023E+03   -0.30131E+00   -0.28318E+00 15906   0.271E+00    0.303E+00
DAV:   3    -0.365321179045E+03    0.10703E-01   -0.12967E-01 18712   0.149E+00    0.130E+00
DAV:   4    -0.365327344241E+03   -0.61652E-02   -0.21618E-02 19192   0.106E+00    0.199E+00
DAV:   5    -0.365318325012E+03    0.90192E-02   -0.74028E-03 16770   0.781E-01    0.407E-01
DAV:   6    -0.365318146487E+03    0.17852E-03   -0.11336E-03 19778   0.183E-01    0.262E-01
DAV:   7    -0.365318033106E+03    0.11338E-03   -0.26751E-04 17160   0.108E-01    0.254E-01
DAV:   8    -0.365317906270E+03    0.12684E-03   -0.19794E-04 17224   0.117E-01    0.224E-01
DAV:   9    -0.365318044554E+03   -0.13828E-03   -0.40681E-04 17192   0.184E-01    0.381E-01
DAV:  10    -0.365317662339E+03    0.38221E-03   -0.47916E-04 19752   0.188E-01    0.175E-01
DAV:  11    -0.365317607344E+03    0.54995E-04   -0.16086E-04 20256   0.796E-02    0.565E-02
DAV:  12    -0.365317623734E+03   -0.16390E-04   -0.50711E-05 20040   0.526E-02    0.850E-02
DAV:  13    -0.365317606196E+03    0.17538E-04   -0.29091E-05 16856   0.444E-02    0.215E-02
DAV:  14    -0.365317609808E+03   -0.36117E-05   -0.69004E-06 17656   0.204E-02    0.422E-02
DAV:  15    -0.365317606087E+03    0.37205E-05   -0.38098E-06 11632   0.182E-02    0.103E-02
DAV:  16    -0.365317606202E+03   -0.11470E-06   -0.93699E-07  8072   0.764E-03
   4 F= -.36531761E+03 E0= -.36530740E+03  d E =-.306302E-01  mag=    45.3507
       N       E                     dE             d eps       ncg     rms          rms(c)
DAV:   1    -0.365168805491E+03    0.14880E+00   -0.46654E+00 20628   0.179E+01    0.554E-01
DAV:   2    -0.365317488389E+03   -0.14868E+00   -0.14438E+00 15840   0.188E+00    0.160E+00
DAV:   3    -0.365316979322E+03    0.50907E-03   -0.54626E-02 19032   0.906E-01    0.863E-01
DAV:   4    -0.365318339910E+03   -0.13606E-02   -0.73685E-03 18730   0.604E-01    0.110E+00
DAV:   5    -0.365315557868E+03    0.27820E-02   -0.23432E-03 16806   0.445E-01    0.221E-01
DAV:   6    -0.365315516029E+03    0.41839E-04   -0.33831E-04 19400   0.962E-02    0.163E-01
DAV:   7    -0.365315466551E+03    0.49477E-04   -0.75542E-05 17130   0.581E-02    0.151E-01
DAV:   8    -0.365315426301E+03    0.40250E-04   -0.53885E-05 17160   0.619E-02    0.137E-01
DAV:   9    -0.365315438633E+03   -0.12331E-04   -0.11545E-04 17440   0.995E-02    0.205E-01
DAV:  10    -0.365315303478E+03    0.13516E-03   -0.13221E-04 20088   0.993E-02    0.503E-02
DAV:  11    -0.365315304631E+03   -0.11529E-05   -0.41851E-05 20352   0.351E-02    0.467E-02
DAV:  12    -0.365315305608E+03   -0.97757E-06   -0.15430E-05 17712   0.292E-02    0.505E-02
DAV:  13    -0.365315300117E+03    0.54912E-05   -0.89087E-06 16608   0.238E-02    0.129E-02
DAV:  14    -0.365315300802E+03   -0.68551E-06   -0.16522E-06  9192   0.102E-02
   5 F= -.36531530E+03 E0= -.36530509E+03  d E =-.306309E-01  mag=    45.3506
