 vasp.5.4.1 05Feb16 (build Oct 12 2016 17:31:35) complex                        
  
 executed on           IFC91_ompi date 2020.09.07  16:22:06
 running on    1 total cores
 distrk:  each k-point on    1 cores,    1 groups
 distr:  one band on NCORES_PER_BAND=   1 cores,    1 groups


--------------------------------------------------------------------------------------------------------


 INCAR:
 POTCAR:   PAW_PBE Ni_pv 06Sep2000                
 POTCAR:   PAW_PBE Ni_pv 06Sep2000                
  local pseudopotential read in
  partial core-charges read in
  atomic valenz-charges read in
  non local Contribution for L=           1  read in
    real space projection operators read in
  non local Contribution for L=           1  read in
    real space projection operators read in
  non local Contribution for L=           2  read in
    real space projection operators read in
  non local Contribution for L=           2  read in
    real space projection operators read in
  non local Contribution for L=           0  read in
    real space projection operators read in
  non local Contribution for L=           0  read in
    real space projection operators read in
    PAW grid and wavefunctions read in
 
   number of l-projection  operators is LMAX  =           6
   number of lm-projection operators is LMMAX =          18
 
 Optimization of the real space projectors (new method)

 maximal supplied QI-value         = 18.90
 optimisation between [QCUT,QGAM] = [  9.83, 19.65] = [ 27.04,108.16] Ry 
 Optimized for a Real-space Cutoff    1.44 Angstroem

   l    n(q)    QCUT    max X(q) W(low)/X(q) W(high)/X(q)  e(spline) 
   1      8     9.827     3.231    0.38E-04    0.39E-04    0.57E-07
   1      8     9.827     4.241    0.57E-04    0.19E-03    0.30E-06
   2      7     9.827     3.566    0.29E-04    0.66E-04    0.48E-07
   2      7     9.827    20.429    0.17E-03    0.37E-03    0.30E-06
   0      8     9.827    19.799    0.18E-04    0.76E-05    0.78E-08
   0      8     9.827    52.283    0.39E-04    0.68E-04    0.44E-07
 PAW_PBE Ni_pv 06Sep2000                :
 energy of atom  1       EATOM=-3500.3496
 kinetic energy error for atom=    0.1419 (will be added to EATOM!!)
 
 
 POSCAR: Supercell by Yi Wang                    
  positions in direct lattice
  No initial velocities read in
 exchange correlation table for  LEXCH =        8
   RHO(1)=    0.500       N(1)  =     2000
   RHO(2)=  100.500       N(2)  =     4000
 


--------------------------------------------------------------------------------------------------------


 ion  position               nearest neighbor table
   1  0.000  0.000  0.000-
   2  0.000  0.000  0.250-
   3  0.000  0.000  0.500-
   4  0.000  0.000  0.750-
   5  0.000  0.250  0.000-
   6  0.000  0.250  0.250-
   7  0.000  0.250  0.500-
   8  0.000  0.250  0.750-
   9  0.000  0.500  0.000-
  10  0.000  0.500  0.250-
  11  0.000  0.500  0.500-
  12  0.000  0.500  0.750-
  13  0.000  0.750  0.000-
  14  0.000  0.750  0.250-
  15  0.000  0.750  0.500-
  16  0.000  0.750  0.750-
  17  0.250  0.000  0.000-
  18  0.250  0.000  0.250-
  19  0.250  0.000  0.500-
  20  0.250  0.000  0.750-
  21  0.250  0.250  0.000-
  22  0.250  0.250  0.250-
  23  0.250  0.250  0.500-
  24  0.250  0.250  0.750-
  25  0.250  0.500  0.000-
  26  0.250  0.500  0.250-
  27  0.250  0.500  0.500-
  28  0.250  0.500  0.750-
  29  0.250  0.750  0.000-
  30  0.250  0.750  0.250-
  31  0.250  0.750  0.500-
  32  0.250  0.750  0.750-
  33  0.500  0.000  0.000-
  34  0.500  0.000  0.250-
  35  0.500  0.000  0.500-
  36  0.500  0.000  0.750-
  37  0.500  0.250  0.000-
  38  0.500  0.250  0.250-
  39  0.500  0.250  0.500-
  40  0.500  0.250  0.750-
  41  0.500  0.500  0.000-
  42  0.500  0.500  0.250-
  43  0.500  0.500  0.500-
  44  0.500  0.500  0.750-
  45  0.500  0.750  0.000-
  46  0.500  0.750  0.250-
  47  0.500  0.750  0.500-
  48  0.500  0.750  0.750-
  49  0.750  0.000  0.000-
  50  0.750  0.000  0.250-
  51  0.750  0.000  0.500-
  52  0.750  0.000  0.750-
  53  0.750  0.250  0.000-
  54  0.750  0.250  0.250-
  55  0.750  0.250  0.500-
  56  0.750  0.250  0.750-
  57  0.750  0.500  0.000-
  58  0.750  0.500  0.250-
  59  0.750  0.500  0.500-
  60  0.750  0.500  0.750-
  61  0.750  0.750  0.000-
  62  0.750  0.750  0.250-
  63  0.750  0.750  0.500-
  64  0.750  0.750  0.750-
 
  LATTYP: Found a face centered cubic cell.
 ALAT       =    14.5230000000
  
  Lattice vectors:
  
 A1 = (   0.0000000000,   7.2615000000,   7.2615000000)
 A2 = (   7.2615000000,   0.0000000000,   7.2615000000)
 A3 = (   7.2615000000,   7.2615000000,   0.0000000000)


Analysis of symmetry for initial positions (statically):
=====================================================================
 Subroutine PRICEL returns following result:
 
  LATTYP: Found a face centered cubic cell.
 ALAT       =     3.6307500000
  
  Lattice vectors:
  
 A1 = (   0.0000000000,   1.8153750000,   1.8153750000)
 A2 = (   1.8153750000,   0.0000000000,   1.8153750000)
 A3 = (   1.8153750000,   1.8153750000,   0.0000000000)
 
  64 primitive cells build up your supercell.
 

 Routine SETGRP: Setting up the symmetry group for a 
 face centered cubic supercell.


 Subroutine GETGRP returns: Found 48 space group operations
 (whereof 48 operations were pure point group operations)
 out of a pool of 48 trial point group operations.


The static configuration has the point symmetry O_h .


Analysis of symmetry for dynamics (positions and initial velocities):
=====================================================================
 Subroutine PRICEL returns following result:
 
  LATTYP: Found a face centered cubic cell.
 ALAT       =     3.6307500000
  
  Lattice vectors:
  
 A1 = (   0.0000000000,   1.8153750000,   1.8153750000)
 A2 = (   1.8153750000,   0.0000000000,   1.8153750000)
 A3 = (   1.8153750000,   1.8153750000,   0.0000000000)
 
  64 primitive cells build up your supercell.
 

 Routine SETGRP: Setting up the symmetry group for a 
 face centered cubic supercell.


 Subroutine GETGRP returns: Found 48 space group operations
 (whereof 48 operations were pure point group operations)
 out of a pool of 48 trial point group operations.


The dynamic configuration has the point symmetry O_h .


Analysis of structural, dynamic, and magnetic symmetry:
=====================================================================
 Subroutine PRICEL returns following result:
 
  LATTYP: Found a face centered cubic cell.
 ALAT       =     3.6307500000
  
  Lattice vectors:
  
 A1 = (   0.0000000000,   1.8153750000,   1.8153750000)
 A2 = (   1.8153750000,   0.0000000000,   1.8153750000)
 A3 = (   1.8153750000,   1.8153750000,   0.0000000000)
 
  64 primitive cells build up your supercell.
 

 Routine SETGRP: Setting up the symmetry group for a 
 face centered cubic supercell.


 Subroutine GETGRP returns: Found 48 space group operations
 (whereof 48 operations were pure point group operations)
 out of a pool of 48 trial point group operations.


The magnetic configuration has the point symmetry O_h .


 Subroutine INISYM returns: Found 48 space group operations
 (whereof 48 operations are pure point group operations),
 and found    64 'primitive' translations

 
 
 KPOINTS: Zr 15x15x15                             

Automatic generation of k-mesh.
Space group operators:
 irot       det(A)        alpha          n_x          n_y          n_z        tau_x        tau_y        tau_z
    1     1.000000     0.000000     1.000000     0.000000     0.000000     0.000000     0.000000     0.000000
    2    -1.000000     0.000000     1.000000     0.000000     0.000000     0.000000     0.000000     0.000000
    3     1.000000   120.000000    -0.577350    -0.577350    -0.577350     0.000000     0.000000     0.000000
    4    -1.000000   120.000000    -0.577350    -0.577350    -0.577350     0.000000     0.000000     0.000000
    5     1.000000   120.000000     0.577350     0.577350     0.577350     0.000000     0.000000     0.000000
    6    -1.000000   120.000000     0.577350     0.577350     0.577350     0.000000     0.000000     0.000000
    7     1.000000    90.000000     0.000000     0.000000    -1.000000     0.000000     0.000000     0.000000
    8    -1.000000    90.000000     0.000000     0.000000    -1.000000     0.000000     0.000000     0.000000
    9     1.000000   180.000000     0.000000     0.707107     0.707107     0.000000     0.000000     0.000000
   10    -1.000000   180.000000     0.000000     0.707107     0.707107     0.000000     0.000000     0.000000
   11     1.000000    90.000000     0.000000     1.000000     0.000000     0.000000     0.000000     0.000000
   12    -1.000000    90.000000     0.000000     1.000000     0.000000     0.000000     0.000000     0.000000
   13     1.000000   180.000000     0.000000     0.000000     1.000000     0.000000     0.000000     0.000000
   14    -1.000000   180.000000     0.000000     0.000000     1.000000     0.000000     0.000000     0.000000
   15     1.000000   120.000000    -0.577350     0.577350     0.577350     0.000000     0.000000     0.000000
   16    -1.000000   120.000000    -0.577350     0.577350     0.577350     0.000000     0.000000     0.000000
   17     1.000000   120.000000    -0.577350     0.577350    -0.577350     0.000000     0.000000     0.000000
   18    -1.000000   120.000000    -0.577350     0.577350    -0.577350     0.000000     0.000000     0.000000
   19     1.000000    90.000000     0.000000     0.000000     1.000000     0.000000     0.000000     0.000000
   20    -1.000000    90.000000     0.000000     0.000000     1.000000     0.000000     0.000000     0.000000
   21     1.000000    90.000000    -1.000000     0.000000     0.000000     0.000000     0.000000     0.000000
   22    -1.000000    90.000000    -1.000000     0.000000     0.000000     0.000000     0.000000     0.000000
   23     1.000000   180.000000     0.707107     0.000000     0.707107     0.000000     0.000000     0.000000
   24    -1.000000   180.000000     0.707107     0.000000     0.707107     0.000000     0.000000     0.000000
   25     1.000000   120.000000     0.577350    -0.577350     0.577350     0.000000     0.000000     0.000000
   26    -1.000000   120.000000     0.577350    -0.577350     0.577350     0.000000     0.000000     0.000000
   27     1.000000   120.000000    -0.577350    -0.577350     0.577350     0.000000     0.000000     0.000000
   28    -1.000000   120.000000    -0.577350    -0.577350     0.577350     0.000000     0.000000     0.000000
   29     1.000000   180.000000     1.000000     0.000000     0.000000     0.000000     0.000000     0.000000
   30    -1.000000   180.000000     1.000000     0.000000     0.000000     0.000000     0.000000     0.000000
   31     1.000000    90.000000     0.000000    -1.000000     0.000000     0.000000     0.000000     0.000000
   32    -1.000000    90.000000     0.000000    -1.000000     0.000000     0.000000     0.000000     0.000000
   33     1.000000   180.000000     0.707107     0.707107     0.000000     0.000000     0.000000     0.000000
   34    -1.000000   180.000000     0.707107     0.707107     0.000000     0.000000     0.000000     0.000000
   35     1.000000    90.000000     1.000000     0.000000     0.000000     0.000000     0.000000     0.000000
   36    -1.000000    90.000000     1.000000     0.000000     0.000000     0.000000     0.000000     0.000000
   37     1.000000   120.000000     0.577350    -0.577350    -0.577350     0.000000     0.000000     0.000000
   38    -1.000000   120.000000     0.577350    -0.577350    -0.577350     0.000000     0.000000     0.000000
   39     1.000000   180.000000     0.000000     1.000000     0.000000     0.000000     0.000000     0.000000
   40    -1.000000   180.000000     0.000000     1.000000     0.000000     0.000000     0.000000     0.000000
   41     1.000000   120.000000     0.577350     0.577350    -0.577350     0.000000     0.000000     0.000000
   42    -1.000000   120.000000     0.577350     0.577350    -0.577350     0.000000     0.000000     0.000000
   43     1.000000   180.000000     0.000000    -0.707107     0.707107     0.000000     0.000000     0.000000
   44    -1.000000   180.000000     0.000000    -0.707107     0.707107     0.000000     0.000000     0.000000
   45     1.000000   180.000000     0.707107    -0.707107     0.000000     0.000000     0.000000     0.000000
   46    -1.000000   180.000000     0.707107    -0.707107     0.000000     0.000000     0.000000     0.000000
   47     1.000000   180.000000     0.707107     0.000000    -0.707107     0.000000     0.000000     0.000000
   48    -1.000000   180.000000     0.707107     0.000000    -0.707107     0.000000     0.000000     0.000000
 
 Subroutine IBZKPT returns following result:
 ===========================================
 
 Found      4 irreducible k-points:
 
 Following reciprocal coordinates:
            Coordinates               Weight
  0.000000  0.000000  0.000000      1.000000
  0.333333  0.000000  0.000000      8.000000
  0.333333  0.333333  0.000000      6.000000
 -0.333333  0.333333  0.000000     12.000000
 
 Following cartesian coordinates:
            Coordinates               Weight
  0.000000  0.000000  0.000000      1.000000
 -0.022952  0.022952  0.022952      8.000000
  0.000000  0.000000  0.045904      6.000000
  0.045904 -0.045904  0.000000     12.000000
 
 
 Subroutine IBZKPT_HF returns following result:
 ==============================================
 
 Found     27 k-points in 1st BZ
 the following     27 k-points will be used (e.g. in the exchange kernel)
 Following reciprocal coordinates:   # in IRBZ
  0.000000  0.000000  0.000000    0.03703704   1 t-inv F
  0.333333  0.000000  0.000000    0.03703704   2 t-inv F
  0.333333  0.333333  0.000000    0.03703704   3 t-inv F
 -0.333333  0.333333  0.000000    0.03703704   4 t-inv F
 -0.333333  0.000000  0.000000    0.03703704   2 t-inv F
  0.000000  0.333333  0.000000    0.03703704   2 t-inv F
  0.000000 -0.333333  0.000000    0.03703704   2 t-inv F
  0.000000  0.000000  0.333333    0.03703704   2 t-inv F
  0.000000  0.000000 -0.333333    0.03703704   2 t-inv F
  0.333333  0.333333  0.333333    0.03703704   2 t-inv F
 -0.333333 -0.333333 -0.333333    0.03703704   2 t-inv F
 -0.333333 -0.333333  0.000000    0.03703704   3 t-inv F
  0.000000  0.333333  0.333333    0.03703704   3 t-inv F
  0.000000 -0.333333 -0.333333    0.03703704   3 t-inv F
  0.333333  0.000000  0.333333    0.03703704   3 t-inv F
 -0.333333  0.000000 -0.333333    0.03703704   3 t-inv F
  0.333333 -0.333333  0.000000    0.03703704   4 t-inv F
  0.000000 -0.333333  0.333333    0.03703704   4 t-inv F
  0.000000  0.333333 -0.333333    0.03703704   4 t-inv F
  0.333333  0.000000 -0.333333    0.03703704   4 t-inv F
 -0.333333  0.000000  0.333333    0.03703704   4 t-inv F
  0.333333  0.333333  0.666667    0.03703704   4 t-inv F
 -0.333333 -0.333333 -0.666667    0.03703704   4 t-inv F
 -0.333333 -0.666667 -0.333333    0.03703704   4 t-inv F
  0.333333  0.666667  0.333333    0.03703704   4 t-inv F
 -0.666667 -0.333333 -0.333333    0.03703704   4 t-inv F
  0.666667  0.333333  0.333333    0.03703704   4 t-inv F


--------------------------------------------------------------------------------------------------------




 Dimension of arrays:
   k-points           NKPTS =      4   k-points in BZ     NKDIM =      4   number of bands    NBANDS=    646
   number of dos      NEDOS =    301   number of ions     NIONS =     64
   non local maximal  LDIM  =      6   non local SUM 2l+1 LMDIM =     18
   total plane-waves  NPLWV = 262144
   max r-space proj   IRMAX =   4326   max aug-charges    IRDMAX=   7757
   dimension x,y,z NGX =    64 NGY =   64 NGZ =   64
   dimension x,y,z NGXF=   128 NGYF=  128 NGZF=  128
   support grid    NGXF=   128 NGYF=  128 NGZF=  128
   ions per type =              64
 NGX,Y,Z   is equivalent  to a cutoff of  10.36, 10.36, 10.36 a.u.
 NGXF,Y,Z  is equivalent  to a cutoff of  20.72, 20.72, 20.72 a.u.


 I would recommend the setting:
   dimension x,y,z NGX =    64 NGY =   64 NGZ =   64
 SYSTEM =  phonon of Zr bcc - omiga                
 POSCAR =  Supercell by Yi Wang                    

 Startparameter for this run:
   NWRITE =      0    write-flag & timer
   PREC   = a         normal or accurate (medium, high low for compatibility)
   ISTART =      0    job   : 0-new  1-cont  2-samecut
   ICHARG =      2    charge: 1-file 2-atom 10-const
   ISPIN  =      2    spin polarized calculation?
   LNONCOLLINEAR =      F non collinear calculations
   LSORBIT =      F    spin-orbit coupling
   INIWAV =      1    electr: 0-lowe 1-rand  2-diag
   LASPH  =      F    aspherical Exc in radial PAW
   METAGGA=      F    non-selfconsistent MetaGGA calc.

 Electronic Relaxation 1
   ENCUT  =  367.9 eV  27.04 Ry    5.20 a.u.  16.06 16.06 16.06*2*pi/ulx,y,z
   ENINI  =  367.9     initial cutoff
   ENAUG  =  703.4 eV  augmentation charge cutoff
   NELM   =     60;   NELMIN=  2; NELMDL= -5     # of ELM steps 
   EDIFF  = 0.1E-05   stopping-criterion for ELM
   LREAL  =      T    real-space projection
   NLSPLINE    = F    spline interpolate recip. space projectors
   LCOMPAT=      F    compatible to vasp.4.4
   GGA_COMPAT  = T    GGA compatible to vasp.4.4-vasp.4.6
   LMAXPAW     = -100 max onsite density
   LMAXMIX     =    2 max onsite mixed and CHGCAR
   VOSKOWN=      0    Vosko Wilk Nusair interpolation
   ROPT   =   -0.00025
 Ionic relaxation
   EDIFFG = 0.1E-04   stopping-criterion for IOM
   NSW    =    805    number of steps for IOM
   NBLOCK =      1;   KBLOCK =      1    inner block; outer block 
   IBRION =      6    ionic relax: 0-MD 1-quasi-New 2-CG
   NFREE  =      4    steps in history (QN), initial steepest desc. (CG)
   ISIF   =      2    stress and relaxation
   IWAVPR =     11    prediction:  0-non 1-charg 2-wave 3-comb
   ISYM   =      2    0-nonsym 1-usesym 2-fastsym
   LCORR  =      T    Harris-Foulkes like correction to forces

   POTIM  = 0.5000    time-step for ionic-motion
   TEIN   =    0.0    initial temperature
   TEBEG  =    0.0;   TEEND  =   0.0 temperature during run
   SMASS  =  -3.00    Nose mass-parameter (am)
   estimated Nose-frequenzy (Omega)   =  0.10E-29 period in steps =****** mass=  -0.241E-26a.u.
   SCALEE = 1.0000    scale energy and forces
   NPACO  =    256;   APACO  = 16.0  distance and # of slots for P.C.
   PSTRESS=    0.0 pullay stress

  Mass of Ions in am
   POMASS =  58.69
  Ionic Valenz
   ZVAL   =  16.00
  Atomic Wigner-Seitz radii
   RWIGS  =  -1.00
  virtual crystal weights 
   VCA    =   1.00
   NELECT =    1024.0000    total number of electrons
   NUPDOWN=      -1.0000    fix difference up-down

 DOS related values:
   EMIN   =  10.00;   EMAX   =-10.00  energy-range for DOS
   EFERMI =   0.00
   ISMEAR =     1;   SIGMA  =   0.20  broadening in eV -4-tet -1-fermi 0-gaus

 Electronic relaxation 2 (details)
   IALGO  =     38    algorithm
   LDIAG  =      T    sub-space diagonalisation (order eigenvalues)
   LSUBROT=      F    optimize rotation matrix (better conditioning)
   TURBO    =      0    0=normal 1=particle mesh
   IRESTART =      0    0=no restart 2=restart with 2 vectors
   NREBOOT  =      0    no. of reboots
   NMIN     =      0    reboot dimension
   EREF     =   0.00    reference energy to select bands
   IMIX   =      4    mixing-type and parameters
     AMIX     =   0.40;   BMIX     =  1.00
     AMIX_MAG =   1.60;   BMIX_MAG =  1.00
     AMIN     =   0.10
     WC   =   100.;   INIMIX=   1;  MIXPRE=   1;  MAXMIX= -45

 Intra band minimization:
   WEIMIN = 0.0010     energy-eigenvalue tresh-hold
   EBREAK =  0.39E-09  absolut break condition
   DEPER  =   0.30     relativ break condition  

   TIME   =   0.40     timestep for ELM

  volume/ion in A,a.u.               =      11.97        80.75
  Fermi-wavevector in a.u.,A,eV,Ry     =   1.803593  3.408296 44.259027  3.252947
  Thomas-Fermi vector in A             =   2.863671
 
 Write flags
   LWAVE  =      T    write WAVECAR
   LCHARG =      T    write CHGCAR
   LVTOT  =      F    write LOCPOT, total local potential
   LVHAR  =      F    write LOCPOT, Hartree potential only
   LELF   =      F    write electronic localiz. function (ELF)
   LORBIT =      0    0 simple, 1 ext, 2 COOP (PROOUT)


 Dipole corrections
   LMONO  =      F    monopole corrections only (constant potential shift)
   LDIPOL =      F    correct potential (dipole corrections)
   IDIPOL =      0    1-x, 2-y, 3-z, 4-all directions 
   EPSILON=  1.0000000 bulk dielectric constant

 Exchange correlation treatment:
   GGA     =    --    GGA type
   LEXCH   =     8    internal setting for exchange type
   VOSKOWN=      0    Vosko Wilk Nusair interpolation
   LHFCALC =     F    Hartree Fock is set to
   LHFONE  =     F    Hartree Fock one center treatment
   AEXX    =    0.0000 exact exchange contribution

 Linear response parameters
   LEPSILON=     F    determine dielectric tensor
   LRPA    =     F    only Hartree local field effects (RPA)
   LNABLA  =     F    use nabla operator in PAW spheres
   LVEL    =     F    velocity operator in full k-point grid
   LINTERFAST=   F  fast interpolation
   KINTER  =     0    interpolate to denser k-point grid
   CSHIFT  =0.1000    complex shift for real part using Kramers Kronig
   OMEGAMAX=  -1.0    maximum frequency
   DEG_THRESHOLD= 0.2000000E-02 threshold for treating states as degnerate
   RTIME   =    0.100 relaxation time in fs

 Orbital magnetization related:
   ORBITALMAG=     F  switch on orbital magnetization
   LCHIMAG   =     F  perturbation theory with respect to B field
   DQ        =  0.001000  dq finite difference perturbation B field



--------------------------------------------------------------------------------------------------------


 finite differences with symmetry
 charge density and potential will be updated during run
 spin polarized calculation
 Variant of blocked Davidson
 Davidson routine will perform the subspace rotation
 perform sub-space diagonalisation
    after iterative eigenvector-optimisation
 modified Broyden-mixing scheme, WC =      100.0
 initial mixing is a Kerker type mixing with AMIX =  0.4000 and BMIX =      1.0000
 Hartree-type preconditioning will be used
 using additional bands          134
 real space projection scheme for non local part
 use partial core corrections
 calculate Harris-corrections to forces 
   (improved forces if not selfconsistent)
 use gradient corrections 
 use of overlap-Matrix (Vanderbilt PP)
 Methfessel and Paxton  Order N= 1 SIGMA  =   0.20


--------------------------------------------------------------------------------------------------------


  energy-cutoff  :      367.94
  volume of cell :      765.79
      direct lattice vectors                 reciprocal lattice vectors
     0.000000000  7.261500000  7.261500000    -0.068856297  0.068856297  0.068856297
     7.261500000  0.000000000  7.261500000     0.068856297 -0.068856297  0.068856297
     7.261500000  7.261500000  0.000000000     0.068856297  0.068856297 -0.068856297

  length of vectors
    10.269311783 10.269311783 10.269311783     0.119262605  0.119262605  0.119262605


 
 k-points in units of 2pi/SCALE and weight: Zr 15x15x15                             
   0.00000000  0.00000000  0.00000000       0.037
  -0.02295210  0.02295210  0.02295210       0.296
   0.00000000  0.00000000  0.04590420       0.222
   0.04590420 -0.04590420  0.00000000       0.444
 
 k-points in reciprocal lattice and weights: Zr 15x15x15                             
   0.00000000  0.00000000  0.00000000       0.037
   0.33333333  0.00000000  0.00000000       0.296
   0.33333333  0.33333333  0.00000000       0.222
  -0.33333333  0.33333333  0.00000000       0.444
 
 position of ions in fractional coordinates (direct lattice) 
   0.00000000  0.00000000  0.00000000
   0.00000000  0.00000000  0.25000000
   0.00000000  0.00000000  0.50000000
   0.00000000  0.00000000  0.75000000
   0.00000000  0.25000000  0.00000000
   0.00000000  0.25000000  0.25000000
   0.00000000  0.25000000  0.50000000
   0.00000000  0.25000000  0.75000000
   0.00000000  0.50000000  0.00000000
   0.00000000  0.50000000  0.25000000
   0.00000000  0.50000000  0.50000000
   0.00000000  0.50000000  0.75000000
   0.00000000  0.75000000  0.00000000
   0.00000000  0.75000000  0.25000000
   0.00000000  0.75000000  0.50000000
   0.00000000  0.75000000  0.75000000
   0.25000000  0.00000000  0.00000000
   0.25000000  0.00000000  0.25000000
   0.25000000  0.00000000  0.50000000
   0.25000000  0.00000000  0.75000000
   0.25000000  0.25000000  0.00000000
   0.25000000  0.25000000  0.25000000
   0.25000000  0.25000000  0.50000000
   0.25000000  0.25000000  0.75000000
   0.25000000  0.50000000  0.00000000
   0.25000000  0.50000000  0.25000000
   0.25000000  0.50000000  0.50000000
   0.25000000  0.50000000  0.75000000
   0.25000000  0.75000000  0.00000000
   0.25000000  0.75000000  0.25000000
   0.25000000  0.75000000  0.50000000
   0.25000000  0.75000000  0.75000000
   0.50000000  0.00000000  0.00000000
   0.50000000  0.00000000  0.25000000
   0.50000000  0.00000000  0.50000000
   0.50000000  0.00000000  0.75000000
   0.50000000  0.25000000  0.00000000
   0.50000000  0.25000000  0.25000000
   0.50000000  0.25000000  0.50000000
   0.50000000  0.25000000  0.75000000
   0.50000000  0.50000000  0.00000000
   0.50000000  0.50000000  0.25000000
   0.50000000  0.50000000  0.50000000
   0.50000000  0.50000000  0.75000000
   0.50000000  0.75000000  0.00000000
   0.50000000  0.75000000  0.25000000
   0.50000000  0.75000000  0.50000000
   0.50000000  0.75000000  0.75000000
   0.75000000  0.00000000  0.00000000
   0.75000000  0.00000000  0.25000000
   0.75000000  0.00000000  0.50000000
   0.75000000  0.00000000  0.75000000
   0.75000000  0.25000000  0.00000000
   0.75000000  0.25000000  0.25000000
   0.75000000  0.25000000  0.50000000
   0.75000000  0.25000000  0.75000000
   0.75000000  0.50000000  0.00000000
   0.75000000  0.50000000  0.25000000
   0.75000000  0.50000000  0.50000000
   0.75000000  0.50000000  0.75000000
   0.75000000  0.75000000  0.00000000
   0.75000000  0.75000000  0.25000000
   0.75000000  0.75000000  0.50000000
   0.75000000  0.75000000  0.75000000
 
 position of ions in cartesian coordinates  (Angst):
   0.00000000  0.00000000  0.00000000
   1.81537500  1.81537500  0.00000000
   3.63075000  3.63075000  0.00000000
   5.44612500  5.44612500  0.00000000
   1.81537500  0.00000000  1.81537500
   3.63075000  1.81537500  1.81537500
   5.44612500  3.63075000  1.81537500
   7.26150000  5.44612500  1.81537500
   3.63075000  0.00000000  3.63075000
   5.44612500  1.81537500  3.63075000
   7.26150000  3.63075000  3.63075000
   9.07687500  5.44612500  3.63075000
   5.44612500  0.00000000  5.44612500
   7.26150000  1.81537500  5.44612500
   9.07687500  3.63075000  5.44612500
  10.89225000  5.44612500  5.44612500
   0.00000000  1.81537500  1.81537500
   1.81537500  3.63075000  1.81537500
   3.63075000  5.44612500  1.81537500
   5.44612500  7.26150000  1.81537500
   1.81537500  1.81537500  3.63075000
   3.63075000  3.63075000  3.63075000
   5.44612500  5.44612500  3.63075000
   7.26150000  7.26150000  3.63075000
   3.63075000  1.81537500  5.44612500
   5.44612500  3.63075000  5.44612500
   7.26150000  5.44612500  5.44612500
   9.07687500  7.26150000  5.44612500
   5.44612500  1.81537500  7.26150000
   7.26150000  3.63075000  7.26150000
   9.07687500  5.44612500  7.26150000
  10.89225000  7.26150000  7.26150000
   0.00000000  3.63075000  3.63075000
   1.81537500  5.44612500  3.63075000
   3.63075000  7.26150000  3.63075000
   5.44612500  9.07687500  3.63075000
   1.81537500  3.63075000  5.44612500
   3.63075000  5.44612500  5.44612500
   5.44612500  7.26150000  5.44612500
   7.26150000  9.07687500  5.44612500
   3.63075000  3.63075000  7.26150000
   5.44612500  5.44612500  7.26150000
   7.26150000  7.26150000  7.26150000
   9.07687500  9.07687500  7.26150000
   5.44612500  3.63075000  9.07687500
   7.26150000  5.44612500  9.07687500
   9.07687500  7.26150000  9.07687500
  10.89225000  9.07687500  9.07687500
   0.00000000  5.44612500  5.44612500
   1.81537500  7.26150000  5.44612500
   3.63075000  9.07687500  5.44612500
   5.44612500 10.89225000  5.44612500
   1.81537500  5.44612500  7.26150000
   3.63075000  7.26150000  7.26150000
   5.44612500  9.07687500  7.26150000
   7.26150000 10.89225000  7.26150000
   3.63075000  5.44612500  9.07687500
   5.44612500  7.26150000  9.07687500
   7.26150000  9.07687500  9.07687500
   9.07687500 10.89225000  9.07687500
   5.44612500  5.44612500 10.89225000
   7.26150000  7.26150000 10.89225000
   9.07687500  9.07687500 10.89225000
  10.89225000 10.89225000 10.89225000
 


--------------------------------------------------------------------------------------------------------


 k-point  1 :   0.0000 0.0000 0.0000  plane waves:   12195
 k-point  2 :   0.3333 0.0000 0.0000  plane waves:   12263
 k-point  3 :   0.3333 0.3333 0.0000  plane waves:   12231
 k-point  4 :  -0.3333 0.3333 0.0000  plane waves:   12304

 maximum and minimum number of plane-waves per node :     12304    12195

 maximum number of plane-waves:     12304
 maximum index in each direction: 
   IXMAX=   16   IYMAX=   16   IZMAX=   16
   IXMIN=  -16   IYMIN=  -16   IZMIN=  -16

 WARNING: aliasing errors must be expected set NGX to  66 to avoid them
 WARNING: aliasing errors must be expected set NGY to  66 to avoid them
 WARNING: aliasing errors must be expected set NGZ to  66 to avoid them
 aliasing errors are usually negligible using standard VASP settings
 and one can safely disregard these warnings

 serial   3D FFT for wavefunctions
 parallel 3D FFT for charge:
    minimum data exchange during FFTs selected (reduces bandwidth)


 total amount of memory used by VASP on root node  1437150. kBytes
========================================================================

   base      :      30000. kBytes
   nonlr-proj:      46103. kBytes
   fftplans  :      72476. kBytes
   grid      :     173932. kBytes
   one-center:       1990. kBytes
   wavefun   :    1112649. kBytes
 
     INWAV:  cpu time    0.0000: real time    0.0000
 Broyden mixing: mesh for mixing (old mesh)
   NGX = 33   NGY = 33   NGZ = 33
  (NGX  =128   NGY  =128   NGZ  =128)
  gives a total of  35937 points

 initial charge density was supplied:
 charge density of overlapping atoms calculated
 number of electron    1024.0000000 magnetization      64.0000000
 keeping initial charge density in first step


--------------------------------------------------------------------------------------------------------


 Maximum index for non-local projection operator         4093
 Maximum index for augmentation-charges         7395 (set IRDMAX)


--------------------------------------------------------------------------------------------------------


 First call to EWALD:  gamma=   0.194
 Maximum number of real-space cells 3x 3x 3
 Maximum number of reciprocal cells 3x 3x 3

 FEWALD executed in parallel
    FEWALD:  cpu time    0.0220: real time    0.0222


----------------------------------------- Iteration    1(   1)  ---------------------------------------


    POTLOK:  cpu time    2.3306: real time    2.3285
    SETDIJ:  cpu time    0.3769: real time    0.3761
     EDDAV:  cpu time  479.5301: real time  479.1748
       DOS:  cpu time    0.0130: real time    0.0133
    --------------------------------------------
      LOOP:  cpu time  482.2507: real time  481.8940

 eigenvalue-minimisations  : 12144
 total energy-change (2. order) : 0.1361712E+05  (-0.5531074E+05)
 number of electron    1024.0000000 magnetization      64.0000000
 augmentation part     1024.0000000 magnetization      64.0000000

 Free energy of the ion-electron system (eV)
  ---------------------------------------------------
  alpha Z        PSCENC =      9010.57505126
  Ewald energy   TEWEN  =   -148962.18054686
  -Hartree energ DENC   =    -64548.20625185
  -exchange      EXHF   =         0.00000000
  -V(xc)+E(xc)   XCENC  =      5698.57200584
  PAW double counting   =    172361.15642774  -181272.45834873
  entropy T*S    EENTRO =        -0.00595168
  eigenvalues    EBANDS =     -2683.62611675
  atomic energy  EATOM  =    224013.29143063
  Solvation  Ediel_sol  =         0.00000000
  ---------------------------------------------------
  free energy    TOTEN  =     13617.11769960 eV

  energy without entropy =    13617.12365128  energy(sigma->0) =    13617.11968350


--------------------------------------------------------------------------------------------------------




----------------------------------------- Iteration    1(   2)  ---------------------------------------


     EDDAV:  cpu time  430.1066: real time  429.7669
       DOS:  cpu time    0.0130: real time    0.0136
    --------------------------------------------
      LOOP:  cpu time  430.1226: real time  429.7819

 eigenvalue-minimisations  : 10336
 total energy-change (2. order) :-0.1287715E+05  (-0.1248319E+05)
 number of electron    1024.0000000 magnetization      64.0000000
 augmentation part     1024.0000000 magnetization      64.0000000

 Free energy of the ion-electron system (eV)
  ---------------------------------------------------
  alpha Z        PSCENC =      9010.57505126
  Ewald energy   TEWEN  =   -148962.18054686
  -Hartree energ DENC   =    -64548.20625185
  -exchange      EXHF   =         0.00000000
  -V(xc)+E(xc)   XCENC  =      5698.57200584
  PAW double counting   =    172361.15642774  -181272.45834873
  entropy T*S    EENTRO =         0.00323684
  eigenvalues    EBANDS =    -15560.78142014
  atomic energy  EATOM  =    224013.29143063
  Solvation  Ediel_sol  =         0.00000000
  ---------------------------------------------------
  free energy    TOTEN  =       739.97158473 eV

  energy without entropy =      739.96834789  energy(sigma->0) =      739.97050578


--------------------------------------------------------------------------------------------------------




----------------------------------------- Iteration    1(   3)  ---------------------------------------


     EDDAV:  cpu time  440.9990: real time  440.6508
       DOS:  cpu time    0.0160: real time    0.0159
    --------------------------------------------
      LOOP:  cpu time  441.0150: real time  440.6673

 eigenvalue-minimisations  : 10680
 total energy-change (2. order) :-0.1109561E+04  (-0.9159538E+03)
 number of electron    1024.0000000 magnetization      64.0000000
 augmentation part     1024.0000000 magnetization      64.0000000

 Free energy of the ion-electron system (eV)
  ---------------------------------------------------
  alpha Z        PSCENC =      9010.57505126
  Ewald energy   TEWEN  =   -148962.18054686
  -Hartree energ DENC   =    -64548.20625185
  -exchange      EXHF   =         0.00000000
  -V(xc)+E(xc)   XCENC  =      5698.57200584
  PAW double counting   =    172361.15642774  -181272.45834873
  entropy T*S    EENTRO =         0.18982401
  eigenvalues    EBANDS =    -16670.52930439
  atomic energy  EATOM  =    224013.29143063
  Solvation  Ediel_sol  =         0.00000000
  ---------------------------------------------------
  free energy    TOTEN  =      -369.58971235 eV

  energy without entropy =     -369.77953637  energy(sigma->0) =     -369.65298702


--------------------------------------------------------------------------------------------------------




----------------------------------------- Iteration    1(   4)  ---------------------------------------


     EDDAV:  cpu time  453.4521: real time  453.0939
       DOS:  cpu time    0.0150: real time    0.0158
    --------------------------------------------
      LOOP:  cpu time  453.4681: real time  453.1103

 eigenvalue-minimisations  : 11120
 total energy-change (2. order) :-0.5788871E+02  (-0.5651234E+02)
 number of electron    1024.0000000 magnetization      64.0000000
 augmentation part     1024.0000000 magnetization      64.0000000

 Free energy of the ion-electron system (eV)
  ---------------------------------------------------
  alpha Z        PSCENC =      9010.57505126
  Ewald energy   TEWEN  =   -148962.18054686
  -Hartree energ DENC   =    -64548.20625185
  -exchange      EXHF   =         0.00000000
  -V(xc)+E(xc)   XCENC  =      5698.57200584
  PAW double counting   =    172361.15642774  -181272.45834873
  entropy T*S    EENTRO =         0.18191601
  eigenvalues    EBANDS =    -16728.41010650
  atomic energy  EATOM  =    224013.29143063
  Solvation  Ediel_sol  =         0.00000000
  ---------------------------------------------------
  free energy    TOTEN  =      -427.47842245 eV

  energy without entropy =     -427.66033847  energy(sigma->0) =     -427.53906113


--------------------------------------------------------------------------------------------------------




----------------------------------------- Iteration    1(   5)  ---------------------------------------


     EDDAV:  cpu time  449.0187: real time  448.6656
       DOS:  cpu time    0.0160: real time    0.0160
    CHARGE:  cpu time   23.2605: real time   23.2424
    MIXING:  cpu time    0.0450: real time    0.0440
    --------------------------------------------
      LOOP:  cpu time  472.3412: real time  471.9687

 eigenvalue-minimisations  : 10952
 total energy-change (2. order) :-0.8560979E+00  (-0.8555324E+00)
 number of electron    1024.0006171 magnetization      58.2671780
 augmentation part      572.7765273 magnetization      46.5996386

 Broyden mixing:
  rms(total) = 0.68171E+01    rms(broyden)= 0.68149E+01
  rms(prec ) = 0.92183E+01
  weight for this iteration     100.00

 Free energy of the ion-electron system (eV)
  ---------------------------------------------------
  alpha Z        PSCENC =      9010.57505126
  Ewald energy   TEWEN  =   -148962.18054686
  -Hartree energ DENC   =    -64548.20625185
  -exchange      EXHF   =         0.00000000
  -V(xc)+E(xc)   XCENC  =      5698.57200584
  PAW double counting   =    172361.15642774  -181272.45834873
  entropy T*S    EENTRO =         0.18195222
  eigenvalues    EBANDS =    -16729.26624060
  atomic energy  EATOM  =    224013.29143063
  Solvation  Ediel_sol  =         0.00000000
  ---------------------------------------------------
  free energy    TOTEN  =      -428.33452036 eV

  energy without entropy =     -428.51647258  energy(sigma->0) =     -428.39517110


--------------------------------------------------------------------------------------------------------




----------------------------------------- Iteration    1(   6)  ---------------------------------------


    POTLOK:  cpu time    2.3816: real time    2.3802
    SETDIJ:  cpu time    0.3949: real time    0.3956
     EDDAV:  cpu time  441.4169: real time  441.0676
       DOS:  cpu time    0.0160: real time    0.0156
    CHARGE:  cpu time   18.6202: real time   18.6062
    MIXING:  cpu time    0.0480: real time    0.0477
    --------------------------------------------
      LOOP:  cpu time  462.8786: real time  462.5136

 eigenvalue-minimisations  : 10820
 total energy-change (2. order) : 0.2819931E+02  (-0.6514115E+02)
 number of electron    1024.0006846 magnetization      52.1581602
 augmentation part      632.7346744 magnetization      46.3018394

 Broyden mixing:
  rms(total) = 0.54254E+01    rms(broyden)= 0.54250E+01
  rms(prec ) = 0.68278E+01
  weight for this iteration     100.00

 eigenvalues of (default mixing * dielectric matrix)
  average eigenvalue GAMMA=   0.5381
  0.5381

 Free energy of the ion-electron system (eV)
  ---------------------------------------------------
  alpha Z        PSCENC =      9010.57505126
  Ewald energy   TEWEN  =   -148962.18054686
  -Hartree energ DENC   =    -61235.32658376
  -exchange      EXHF   =         0.00000000
  -V(xc)+E(xc)   XCENC  =      5572.81608111
  PAW double counting   =    167405.48516096  -175989.79181871
  entropy T*S    EENTRO =        -0.45251670
  eigenvalues    EBANDS =    -20214.55146752
  atomic energy  EATOM  =    224013.29143063
  Solvation  Ediel_sol  =         0.00000000
  ---------------------------------------------------
  free energy    TOTEN  =      -400.13520958 eV

  energy without entropy =     -399.68269288  energy(sigma->0) =     -399.98437068


--------------------------------------------------------------------------------------------------------




----------------------------------------- Iteration    1(   7)  ---------------------------------------


    POTLOK:  cpu time    2.3776: real time    2.3753
    SETDIJ:  cpu time    0.3899: real time    0.3899
     EDDAV:  cpu time  439.1112: real time  438.7623
       DOS:  cpu time    0.0160: real time    0.0163
    CHARGE:  cpu time   18.2012: real time   18.1865
    MIXING:  cpu time    0.0500: real time    0.0500
    --------------------------------------------
      LOOP:  cpu time  460.1460: real time  459.7810

 eigenvalue-minimisations  : 10736
 total energy-change (2. order) : 0.3484729E+02  (-0.1362233E+02)
 number of electron    1024.0006547 magnetization      47.8063286
 augmentation part      606.3016089 magnetization      39.1768739

 Broyden mixing:
  rms(total) = 0.59855E+00    rms(broyden)= 0.59806E+00
  rms(prec ) = 0.70790E+00
  weight for this iteration     100.00

 eigenvalues of (default mixing * dielectric matrix)
  average eigenvalue GAMMA=   0.7111
  0.8577  0.5644

 Free energy of the ion-electron system (eV)
  ---------------------------------------------------
  alpha Z        PSCENC =      9010.57505126
  Ewald energy   TEWEN  =   -148962.18054686
  -Hartree energ DENC   =    -62496.23647469
  -exchange      EXHF   =         0.00000000
  -V(xc)+E(xc)   XCENC  =      5620.08677115
  PAW double counting   =    170060.18239826  -178927.58023424
  entropy T*S    EENTRO =        -0.03481443
  eigenvalues    EBANDS =    -18683.39150126
  atomic energy  EATOM  =    224013.29143063
  Solvation  Ediel_sol  =         0.00000000
  ---------------------------------------------------
  free energy    TOTEN  =      -365.28792018 eV

  energy without entropy =     -365.25310575  energy(sigma->0) =     -365.27631537


--------------------------------------------------------------------------------------------------------




----------------------------------------- Iteration    1(   8)  ---------------------------------------


    POTLOK:  cpu time    2.3656: real time    2.3634
    SETDIJ:  cpu time    0.3919: real time    0.3910
     EDDAV:  cpu time  441.3869: real time  441.0397
       DOS:  cpu time    0.0150: real time    0.0158
    CHARGE:  cpu time   18.6282: real time   18.6125
    MIXING:  cpu time    0.0520: real time    0.0525
    --------------------------------------------
      LOOP:  cpu time  462.8416: real time  462.4757

 eigenvalue-minimisations  : 10824
 total energy-change (2. order) :-0.1492115E+00  (-0.1280659E+00)
 number of electron    1024.0006544 magnetization      44.5803799
 augmentation part      605.9091077 magnetization      37.2809502

 Broyden mixing:
  rms(total) = 0.31599E+00    rms(broyden)= 0.31595E+00
  rms(prec ) = 0.41547E+00
  weight for this iteration     100.00

 eigenvalues of (default mixing * dielectric matrix)
  average eigenvalue GAMMA=   1.1136
  0.5757  0.8673  1.8978

 Free energy of the ion-electron system (eV)
  ---------------------------------------------------
  alpha Z        PSCENC =      9010.57505126
  Ewald energy   TEWEN  =   -148962.18054686
  -Hartree energ DENC   =    -62387.54042033
  -exchange      EXHF   =         0.00000000
  -V(xc)+E(xc)   XCENC  =      5617.12524704
  PAW double counting   =    170508.90273992  -179460.02106567
  entropy T*S    EENTRO =        -0.02247777
  eigenvalues    EBANDS =    -18705.56708990
  atomic energy  EATOM  =    224013.29143063
  Solvation  Ediel_sol  =         0.00000000
  ---------------------------------------------------
  free energy    TOTEN  =      -365.43713168 eV

  energy without entropy =     -365.41465391  energy(sigma->0) =     -365.42963909


--------------------------------------------------------------------------------------------------------




----------------------------------------- Iteration    1(   9)  ---------------------------------------


    POTLOK:  cpu time    2.3486: real time    2.3469
    SETDIJ:  cpu time    0.3919: real time    0.3909
     EDDAV:  cpu time  446.6131: real time  446.2626
       DOS:  cpu time    0.0150: real time    0.0154
    CHARGE:  cpu time   18.6642: real time   18.6505
    MIXING:  cpu time    0.0560: real time    0.0552
    --------------------------------------------
      LOOP:  cpu time  468.0898: real time  467.7222

 eigenvalue-minimisations  : 11050
 total energy-change (2. order) : 0.1289881E+00  (-0.2848521E-01)
 number of electron    1024.0006553 magnetization      44.7710189
 augmentation part      606.7093599 magnetization      38.4772134

 Broyden mixing:
  rms(total) = 0.80010E-01    rms(broyden)= 0.79998E-01
  rms(prec ) = 0.82886E-01
  weight for this iteration     100.00

 eigenvalues of (default mixing * dielectric matrix)
  average eigenvalue GAMMA=   1.0805
  2.2009  0.9088  0.5856  0.6267

 Free energy of the ion-electron system (eV)
  ---------------------------------------------------
  alpha Z        PSCENC =      9010.57505126
  Ewald energy   TEWEN  =   -148962.18054686
  -Hartree energ DENC   =    -62230.68954451
  -exchange      EXHF   =         0.00000000
  -V(xc)+E(xc)   XCENC  =      5612.34581570
  PAW double counting   =    170928.32485825  -179954.42885707
  entropy T*S    EENTRO =        -0.03057668
  eigenvalues    EBANDS =    -18782.51577436
  atomic energy  EATOM  =    224013.29143063
  Solvation  Ediel_sol  =         0.00000000
  ---------------------------------------------------
  free energy    TOTEN  =      -365.30814363 eV

  energy without entropy =     -365.27756695  energy(sigma->0) =     -365.29795140


--------------------------------------------------------------------------------------------------------




----------------------------------------- Iteration    1(  10)  ---------------------------------------


    POTLOK:  cpu time    2.3506: real time    2.3479
    SETDIJ:  cpu time    0.3919: real time    0.3922
     EDDAV:  cpu time  468.7887: real time  468.4186
       DOS:  cpu time    0.0150: real time    0.0155
    CHARGE:  cpu time   18.9711: real time   18.9563
    MIXING:  cpu time    0.0590: real time    0.0595
    --------------------------------------------
      LOOP:  cpu time  490.5774: real time  490.1907

 eigenvalue-minimisations  : 11682
 total energy-change (2. order) :-0.5873874E-02  (-0.1411562E-02)
 number of electron    1024.0006552 magnetization      45.3375299
 augmentation part      606.6872250 magnetization      38.9678593

 Broyden mixing:
  rms(total) = 0.36160E-01    rms(broyden)= 0.36153E-01
  rms(prec ) = 0.37539E-01
  weight for this iteration     100.00

 eigenvalues of (default mixing * dielectric matrix)
  average eigenvalue GAMMA=   1.2288
  2.3455  1.6280  0.9720  0.5817  0.6170

 Free energy of the ion-electron system (eV)
  ---------------------------------------------------
  alpha Z        PSCENC =      9010.57505126
  Ewald energy   TEWEN  =   -148962.18054686
  -Hartree energ DENC   =    -62222.83747671
  -exchange      EXHF   =         0.00000000
  -V(xc)+E(xc)   XCENC  =      5612.15096123
  PAW double counting   =    171009.90979924  -180042.48442517
  entropy T*S    EENTRO =        -0.03013308
  eigenvalues    EBANDS =    -18783.70867805
  atomic energy  EATOM  =    224013.29143063
  Solvation  Ediel_sol  =         0.00000000
  ---------------------------------------------------
  free energy    TOTEN  =      -365.31401750 eV

  energy without entropy =     -365.28388443  energy(sigma->0) =     -365.30397314


--------------------------------------------------------------------------------------------------------




----------------------------------------- Iteration    1(  11)  ---------------------------------------


    POTLOK:  cpu time    2.3746: real time    2.3716
    SETDIJ:  cpu time    0.3939: real time    0.3948
     EDDAV:  cpu time  442.6697: real time  442.3185
       DOS:  cpu time    0.0150: real time    0.0153
    CHARGE:  cpu time   19.3341: real time   19.3187
    MIXING:  cpu time    0.0620: real time    0.0614
    --------------------------------------------
      LOOP:  cpu time  464.8503: real time  464.4812

 eigenvalue-minimisations  : 10924
 total energy-change (2. order) :-0.4400310E-02  (-0.8579995E-03)
 number of electron    1024.0006551 magnetization      45.3572626
 augmentation part      606.5893902 magnetization      38.8112583

 Broyden mixing:
  rms(total) = 0.11674E-01    rms(broyden)= 0.11665E-01
  rms(prec ) = 0.14841E-01
  weight for this iteration     100.00

 eigenvalues of (default mixing * dielectric matrix)
  average eigenvalue GAMMA=   1.1832
  2.4257  1.7445  0.9812  0.7356  0.5750  0.6371

 Free energy of the ion-electron system (eV)
  ---------------------------------------------------
  alpha Z        PSCENC =      9010.57505126
  Ewald energy   TEWEN  =   -148962.18054686
  -Hartree energ DENC   =    -62224.64739478
  -exchange      EXHF   =         0.00000000
  -V(xc)+E(xc)   XCENC  =      5612.20290286
  PAW double counting   =    171109.69669124  -180144.95501515
  entropy T*S    EENTRO =        -0.02923285
  eigenvalues    EBANDS =    -18779.27230416
  atomic energy  EATOM  =    224013.29143063
  Solvation  Ediel_sol  =         0.00000000
  ---------------------------------------------------
  free energy    TOTEN  =      -365.31841781 eV

  energy without entropy =     -365.28918496  energy(sigma->0) =     -365.30867353


--------------------------------------------------------------------------------------------------------




----------------------------------------- Iteration    1(  12)  ---------------------------------------


    POTLOK:  cpu time    2.3436: real time    2.3417
    SETDIJ:  cpu time    0.3879: real time    0.3872
     EDDAV:  cpu time  439.5782: real time  439.2294
       DOS:  cpu time    0.0140: real time    0.0148
    CHARGE:  cpu time   18.6082: real time   18.5922
    MIXING:  cpu time    0.0640: real time    0.0648
    --------------------------------------------
      LOOP:  cpu time  460.9979: real time  460.6309

 eigenvalue-minimisations  : 10856
 total energy-change (2. order) : 0.1787729E-04  (-0.8252183E-04)
 number of electron    1024.0006552 magnetization      45.3546334
 augmentation part      606.6418977 magnetization      38.8028379

 Broyden mixing:
  rms(total) = 0.20561E-02    rms(broyden)= 0.20473E-02
  rms(prec ) = 0.21838E-02
  weight for this iteration     100.00

 eigenvalues of (default mixing * dielectric matrix)
  average eigenvalue GAMMA=   1.1765
  2.4522  1.7733  1.1391  0.9263  0.5765  0.6270  0.7413

 Free energy of the ion-electron system (eV)
  ---------------------------------------------------
  alpha Z        PSCENC =      9010.57505126
  Ewald energy   TEWEN  =   -148962.18054686
  -Hartree energ DENC   =    -62221.67066796
  -exchange      EXHF   =         0.00000000
  -V(xc)+E(xc)   XCENC  =      5612.08835278
  PAW double counting   =    171122.29531517  -180157.20210550
  entropy T*S    EENTRO =        -0.03060774
  eigenvalues    EBANDS =    -18782.48462171
  atomic energy  EATOM  =    224013.29143063
  Solvation  Ediel_sol  =         0.00000000
  ---------------------------------------------------
  free energy    TOTEN  =      -365.31839993 eV

  energy without entropy =     -365.28779219  energy(sigma->0) =     -365.30819735


--------------------------------------------------------------------------------------------------------




----------------------------------------- Iteration    1(  13)  ---------------------------------------


    POTLOK:  cpu time    2.3496: real time    2.3471
    SETDIJ:  cpu time    0.3869: real time    0.3873
     EDDAV:  cpu time  417.1406: real time  416.8128
       DOS:  cpu time    0.0150: real time    0.0144
    CHARGE:  cpu time   18.6072: real time   18.5929
    MIXING:  cpu time    0.0690: real time    0.0694
    --------------------------------------------
      LOOP:  cpu time  438.5693: real time  438.2248

 eigenvalue-minimisations  : 10216
 total energy-change (2. order) : 0.2574816E-05  (-0.3485032E-05)
 number of electron    1024.0006552 magnetization      45.3514139
 augmentation part      606.6511678 magnetization      38.7997193

 Broyden mixing:
  rms(total) = 0.18204E-02    rms(broyden)= 0.18201E-02
  rms(prec ) = 0.23792E-02
  weight for this iteration     100.00

 eigenvalues of (default mixing * dielectric matrix)
  average eigenvalue GAMMA=   1.2086
  2.4492  1.7324  1.7324  1.0053  0.5780  0.6215  0.7751  0.7751

 Free energy of the ion-electron system (eV)
  ---------------------------------------------------
  alpha Z        PSCENC =      9010.57505126
  Ewald energy   TEWEN  =   -148962.18054686
  -Hartree energ DENC   =    -62221.54605069
  -exchange      EXHF   =         0.00000000
  -V(xc)+E(xc)   XCENC  =      5612.08268323
  PAW double counting   =    171129.64219083  -180164.14066980
  entropy T*S    EENTRO =        -0.03074743
  eigenvalues    EBANDS =    -18783.01173853
  atomic energy  EATOM  =    224013.29143063
  Solvation  Ediel_sol  =         0.00000000
  ---------------------------------------------------
  free energy    TOTEN  =      -365.31839736 eV

  energy without entropy =     -365.28764993  energy(sigma->0) =     -365.30814821


--------------------------------------------------------------------------------------------------------




----------------------------------------- Iteration    1(  14)  ---------------------------------------


    POTLOK:  cpu time    2.3686: real time    2.3659
    SETDIJ:  cpu time    0.3869: real time    0.3877
     EDDAV:  cpu time  359.8793: real time  359.5948
       DOS:  cpu time    0.0160: real time    0.0158
    CHARGE:  cpu time   18.1692: real time   18.1543
    MIXING:  cpu time    0.0730: real time    0.0719
    --------------------------------------------
      LOOP:  cpu time  380.8941: real time  380.5913

 eigenvalue-minimisations  :  8600
 total energy-change (2. order) : 0.2120878E-04  (-0.5178776E-06)
 number of electron    1024.0006552 magnetization      45.3506860
 augmentation part      606.6471515 magnetization      38.7995575

 Broyden mixing:
  rms(total) = 0.74660E-03    rms(broyden)= 0.74659E-03
  rms(prec ) = 0.93008E-03
  weight for this iteration     100.00

 eigenvalues of (default mixing * dielectric matrix)
  average eigenvalue GAMMA=   1.2589
  2.4890  2.4890  1.7483  1.0641  0.8510  0.8510  0.5773  0.6262  0.6340

 Free energy of the ion-electron system (eV)
  ---------------------------------------------------
  alpha Z        PSCENC =      9010.57505126
  Ewald energy   TEWEN  =   -148962.18054686
  -Hartree energ DENC   =    -62222.12243814
  -exchange      EXHF   =         0.00000000
  -V(xc)+E(xc)   XCENC  =      5612.10431027
  PAW double counting   =    171137.21037928  -180171.40300034
  entropy T*S    EENTRO =        -0.03069072
  eigenvalues    EBANDS =    -18782.76287153
  atomic energy  EATOM  =    224013.29143063
  Solvation  Ediel_sol  =         0.00000000
  ---------------------------------------------------
  free energy    TOTEN  =      -365.31837615 eV

  energy without entropy =     -365.28768543  energy(sigma->0) =     -365.30814591


--------------------------------------------------------------------------------------------------------




----------------------------------------- Iteration    1(  15)  ---------------------------------------


    POTLOK:  cpu time    2.3206: real time    2.3187
    SETDIJ:  cpu time    0.3839: real time    0.3837
     EDDAV:  cpu time  269.3820: real time  269.1671
       DOS:  cpu time    0.0150: real time    0.0149
    CHARGE:  cpu time   18.0513: real time   18.0374
    MIXING:  cpu time    0.0770: real time    0.0767
    --------------------------------------------
      LOOP:  cpu time  290.2299: real time  289.9994

 eigenvalue-minimisations  :  5628
 total energy-change (2. order) : 0.8149800E-05  (-0.1575785E-06)
 number of electron    1024.0006552 magnetization      45.3506390
 augmentation part      606.6443948 magnetization      38.7994701

 Broyden mixing:
  rms(total) = 0.50679E-04    rms(broyden)= 0.50278E-04
  rms(prec ) = 0.53332E-04
  weight for this iteration     100.00

 eigenvalues of (default mixing * dielectric matrix)
  average eigenvalue GAMMA=   1.2383
  2.6210  2.4513  1.7469  1.1214  0.9738  0.8606  0.7710  0.5773  0.6258  0.6345

 Free energy of the ion-electron system (eV)
  ---------------------------------------------------
  alpha Z        PSCENC =      9010.57505126
  Ewald energy   TEWEN  =   -148962.18054686
  -Hartree energ DENC   =    -62222.38964228
  -exchange      EXHF   =         0.00000000
  -V(xc)+E(xc)   XCENC  =      5612.11429049
  PAW double counting   =    171139.91688700  -180174.01427369
  entropy T*S    EENTRO =        -0.03063807
  eigenvalues    EBANDS =    -18782.60092649
  atomic energy  EATOM  =    224013.29143063
  Solvation  Ediel_sol  =         0.00000000
  ---------------------------------------------------
  free energy    TOTEN  =      -365.31836800 eV

  energy without entropy =     -365.28772993  energy(sigma->0) =     -365.30815531


--------------------------------------------------------------------------------------------------------




----------------------------------------- Iteration    1(  16)  ---------------------------------------


    POTLOK:  cpu time    2.3406: real time    2.3388
    SETDIJ:  cpu time    0.3879: real time    0.3870
     EDDAV:  cpu time  259.2386: real time  259.0344
       DOS:  cpu time    0.0160: real time    0.0157
    --------------------------------------------
      LOOP:  cpu time  261.9832: real time  261.7766

 eigenvalue-minimisations  :  5420
 total energy-change (2. order) :-0.1739536E-06  (-0.1798902E-07)
 number of electron    1024.0006552 magnetization      45.3506390
 augmentation part      606.6443948 magnetization      38.7994701

 Free energy of the ion-electron system (eV)
  ---------------------------------------------------
  alpha Z        PSCENC =      9010.57505126
  Ewald energy   TEWEN  =   -148962.18054686
  -Hartree energ DENC   =    -62222.38950742
  -exchange      EXHF   =         0.00000000
  -V(xc)+E(xc)   XCENC  =      5612.11439313
  PAW double counting   =    171139.85788830  -180173.95715384
  entropy T*S    EENTRO =        -0.03063370
  eigenvalues    EBANDS =    -18782.59928967
  atomic energy  EATOM  =    224013.29143063
  Solvation  Ediel_sol  =         0.00000000
  ---------------------------------------------------
  free energy    TOTEN  =      -365.31836817 eV

  energy without entropy =     -365.28773447  energy(sigma->0) =     -365.30815694


--------------------------------------------------------------------------------------------------------




 average (electrostatic) potential at core
  the test charge radii are     0.8614
  (the norm of the test charge is              1.0000)
       1 -80.3903       2 -80.3903       3 -80.3903       4 -80.3903       5 -80.3903
       6 -80.3903       7 -80.3903       8 -80.3903       9 -80.3903      10 -80.3903
      11 -80.3903      12 -80.3903      13 -80.3903      14 -80.3903      15 -80.3903
      16 -80.3903      17 -80.3903      18 -80.3903      19 -80.3903      20 -80.3903
      21 -80.3903      22 -80.3903      23 -80.3903      24 -80.3903      25 -80.3903
      26 -80.3903      27 -80.3903      28 -80.3903      29 -80.3903      30 -80.3903
      31 -80.3903      32 -80.3903      33 -80.3903      34 -80.3903      35 -80.3903
      36 -80.3903      37 -80.3903      38 -80.3903      39 -80.3903      40 -80.3903
      41 -80.3903      42 -80.3903      43 -80.3903      44 -80.3903      45 -80.3903
      46 -80.3903      47 -80.3903      48 -80.3903      49 -80.3903      50 -80.3903
      51 -80.3903      52 -80.3903      53 -80.3903      54 -80.3903      55 -80.3903
      56 -80.3903      57 -80.3903      58 -80.3903      59 -80.3903      60 -80.3903
      61 -80.3903      62 -80.3903      63 -80.3903      64 -80.3903
 
 
 
 E-fermi :   6.7455     XC(G=0): -13.1845     alpha+bet :-13.5317


 spin component 1

 k-point     1 :       0.0000    0.0000    0.0000
  band No.  band energies     occupation 
      1     -57.1724      1.00000
      2     -57.1724      1.00000
      3     -57.1724      1.00000
      4     -57.1716      1.00000
      5     -57.1715      1.00000
      6     -57.1715      1.00000
      7     -57.1715      1.00000
      8     -57.1591      1.00000
      9     -57.1591      1.00000
     10     -57.1591      1.00000
     11     -57.1591      1.00000
     12     -57.1591      1.00000
     13     -57.1591      1.00000
     14     -57.1591      1.00000
     15     -57.1591      1.00000
     16     -57.1591      1.00000
     17     -57.1591      1.00000
     18     -57.1591      1.00000
     19     -57.1591      1.00000
     20     -57.1591      1.00000
     21     -57.1591      1.00000
     22     -57.1591      1.00000
     23     -57.1591      1.00000
     24     -57.1591      1.00000
     25     -57.1591      1.00000
     26     -57.1591      1.00000
     27     -57.1591      1.00000
     28     -57.1591      1.00000
     29     -57.1591      1.00000
     30     -57.1591      1.00000
     31     -57.1591      1.00000
     32     -57.1397      1.00000
     33     -57.1397      1.00000
     34     -57.1397      1.00000
     35     -57.1397      1.00000
     36     -57.1397      1.00000
     37     -57.1397      1.00000
     38     -57.1396      1.00000
     39     -57.1396      1.00000
     40     -57.1396      1.00000
     41     -57.1396      1.00000
     42     -57.1396      1.00000
     43     -57.1396      1.00000
     44     -57.1384      1.00000
     45     -57.1384      1.00000
     46     -57.1384      1.00000
     47     -57.1384      1.00000
     48     -57.1384      1.00000
     49     -57.1384      1.00000
     50     -57.1384      1.00000
     51     -57.1384      1.00000
     52     -57.1384      1.00000
     53     -57.1384      1.00000
     54     -57.1384      1.00000
     55     -57.1384      1.00000
     56     -57.1144      1.00000
     57     -57.1144      1.00000
     58     -57.1143      1.00000
     59     -57.1143      1.00000
     60     -57.1143      1.00000
     61     -57.1143      1.00000
     62     -57.1143      1.00000
     63     -57.1143      1.00000
     64     -57.0997      1.00000
     65     -57.0997      1.00000
     66     -57.0997      1.00000
     67     -57.0997      1.00000
     68     -57.0997      1.00000
     69     -57.0997      1.00000
     70     -57.0997      1.00000
     71     -57.0997      1.00000
     72     -57.0997      1.00000
     73     -57.0997      1.00000
     74     -57.0997      1.00000
     75     -57.0997      1.00000
     76     -57.0930      1.00000
     77     -57.0930      1.00000
     78     -57.0930      1.00000
     79     -57.0930      1.00000
     80     -57.0930      1.00000
     81     -57.0930      1.00000
     82     -57.0913      1.00000
     83     -57.0913      1.00000
     84     -57.0913      1.00000
     85     -57.0913      1.00000
     86     -57.0913      1.00000
     87     -57.0913      1.00000
     88     -57.0913      1.00000
     89     -57.0913      1.00000
     90     -57.0913      1.00000
     91     -57.0913      1.00000
     92     -57.0913      1.00000
     93     -57.0913      1.00000
     94     -57.0913      1.00000
     95     -57.0913      1.00000
     96     -57.0913      1.00000
     97     -57.0913      1.00000
     98     -57.0913      1.00000
     99     -57.0913      1.00000
    100     -57.0913      1.00000
    101     -57.0913      1.00000
    102     -57.0913      1.00000
    103     -57.0913      1.00000
    104     -57.0913      1.00000
    105     -57.0913      1.00000
    106     -57.0898      1.00000
    107     -57.0898      1.00000
    108     -57.0898      1.00000
    109     -57.0898      1.00000
    110     -57.0898      1.00000
    111     -57.0898      1.00000
    112     -57.0868      1.00000
    113     -57.0868      1.00000
    114     -57.0868      1.00000
    115     -57.0867      1.00000
    116     -57.0867      1.00000
    117     -57.0867      1.00000
    118     -57.0684      1.00000
    119     -57.0684      1.00000
    120     -57.0684      1.00000
    121     -57.0684      1.00000
    122     -57.0684      1.00000
    123     -57.0684      1.00000
    124     -57.0684      1.00000
    125     -57.0684      1.00000
    126     -57.0684      1.00000
    127     -57.0684      1.00000
    128     -57.0684      1.00000
    129     -57.0684      1.00000
    130     -57.0683      1.00000
    131     -57.0683      1.00000
    132     -57.0683      1.00000
    133     -57.0683      1.00000
    134     -57.0683      1.00000
    135     -57.0683      1.00000
    136     -57.0683      1.00000
    137     -57.0683      1.00000
    138     -57.0683      1.00000
    139     -57.0683      1.00000
    140     -57.0683      1.00000
    141     -57.0683      1.00000
    142     -57.0491      1.00000
    143     -57.0491      1.00000
    144     -57.0491      1.00000
    145     -57.0491      1.00000
    146     -57.0491      1.00000
    147     -57.0491      1.00000
    148     -57.0491      1.00000
    149     -57.0491      1.00000
    150     -57.0491      1.00000
    151     -57.0491      1.00000
    152     -57.0491      1.00000
    153     -57.0491      1.00000
    154     -57.0474      1.00000
    155     -57.0474      1.00000
    156     -57.0474      1.00000
    157     -57.0474      1.00000
    158     -57.0474      1.00000
    159     -57.0474      1.00000
    160     -57.0474      1.00000
    161     -57.0474      1.00000
    162     -57.0474      1.00000
    163     -57.0474      1.00000
    164     -57.0474      1.00000
    165     -57.0474      1.00000
    166     -57.0437      1.00000
    167     -57.0437      1.00000
    168     -57.0437      1.00000
    169     -57.0437      1.00000
    170     -57.0437      1.00000
    171     -57.0437      1.00000
    172     -57.0437      1.00000
    173     -57.0437      1.00000
    174     -57.0427      1.00000
    175     -57.0427      1.00000
    176     -57.0427      1.00000
    177     -57.0427      1.00000
    178     -57.0427      1.00000
    179     -57.0427      1.00000
    180     -57.0427      1.00000
    181     -57.0427      1.00000
    182     -57.0427      1.00000
    183     -57.0427      1.00000
    184     -57.0427      1.00000
    185     -57.0427      1.00000
    186     -57.0427      1.00000
    187     -57.0427      1.00000
    188     -57.0427      1.00000
    189     -57.0427      1.00000
    190     -57.0328      1.00000
    191     -57.0327      1.00000
    192     -57.0327      1.00000
    193      -1.6761      1.00000
    194       0.4210      1.00000
    195       0.4210      1.00000
    196       0.4210      1.00000
    197       0.4210      1.00000
    198       0.4210      1.00000
    199       0.4210      1.00000
    200       0.4210      1.00000
    201       0.4210      1.00000
    202       1.0492      1.00000
    203       1.0492      1.00000
    204       1.0492      1.00000
    205       1.0492      1.00000
    206       1.0492      1.00000
    207       1.0492      1.00000
    208       2.3365      1.00000
    209       2.3366      1.00000
    210       2.3366      1.00000
    211       2.3366      1.00000
    212       2.5557      1.00000
    213       2.5557      1.00000
    214       2.5557      1.00000
    215       2.8473      1.00000
    216       2.8473      1.00000
    217       2.8473      1.00000
    218       2.8473      1.00000
    219       2.8473      1.00000
    220       2.8473      1.00000
    221       2.8473      1.00000
    222       2.8473      1.00000
    223       2.8473      1.00000
    224       2.8473      1.00000
    225       2.8473      1.00000
    226       2.8473      1.00000
    227       2.9487      1.00000
    228       2.9487      1.00000
    229       2.9487      1.00000
    230       3.0228      1.00000
    231       3.0228      1.00000
    232       3.0228      1.00000
    233       3.0228      1.00000
    234       3.0228      1.00000
    235       3.0228      1.00000
    236       3.0229      1.00000
    237       3.0229      1.00000
    238       3.0229      1.00000
    239       3.0229      1.00000
    240       3.0229      1.00000
    241       3.0229      1.00000
    242       3.0229      1.00000
    243       3.0229      1.00000
    244       3.0229      1.00000
    245       3.0229      1.00000
    246       3.0229      1.00000
    247       3.0229      1.00000
    248       3.0229      1.00000
    249       3.0229      1.00000
    250       3.0229      1.00000
    251       3.0229      1.00000
    252       3.0229      1.00000
    253       3.0229      1.00000
    254       3.3434      1.00000
    255       3.3434      1.00000
    256       3.3434      1.00000
    257       3.3434      1.00000
    258       3.3434      1.00000
    259       3.3434      1.00000
    260       3.6120      1.00000
    261       3.6120      1.00000
    262       3.6120      1.00000
    263       3.6120      1.00000
    264       3.6120      1.00000
    265       3.6120      1.00000
    266       3.6120      1.00000
    267       3.6120      1.00000
    268       3.6120      1.00000
    269       3.6120      1.00000
    270       3.6120      1.00000
    271       3.6120      1.00000
    272       3.6120      1.00000
    273       3.6120      1.00000
    274       3.6120      1.00000
    275       3.6120      1.00000
    276       3.6120      1.00000
    277       3.6120      1.00000
    278       3.6120      1.00000
    279       3.6120      1.00000
    280       3.6120      1.00000
    281       3.6120      1.00000
    282       3.6120      1.00000
    283       3.6120      1.00000
    284       3.6858      1.00000
    285       3.6858      1.00000
    286       3.6858      1.00000
    287       3.6858      1.00000
    288       3.6858      1.00000
    289       3.6858      1.00000
    290       3.9287      1.00000
    291       3.9287      1.00000
    292       3.9287      1.00000
    293       3.9287      1.00000
    294       3.9287      1.00000
    295       3.9287      1.00000
    296       3.9287      1.00000
    297       3.9287      1.00000
    298       3.9287      1.00000
    299       3.9287      1.00000
    300       3.9287      1.00000
    301       3.9287      1.00000
    302       3.9289      1.00000
    303       3.9289      1.00000
    304       3.9289      1.00000
    305       3.9289      1.00000
    306       3.9289      1.00000
    307       3.9289      1.00000
    308       3.9290      1.00000
    309       3.9290      1.00000
    310       3.9290      1.00000
    311       3.9290      1.00000
    312       3.9290      1.00000
    313       3.9290      1.00000
    314       4.2046      1.00000
    315       4.2046      1.00000
    316       4.2046      1.00000
    317       4.2046      1.00000
    318       4.2046      1.00000
    319       4.2046      1.00000
    320       4.2046      1.00000
    321       4.2046      1.00000
    322       4.2154      1.00000
    323       4.2154      1.00000
    324       4.2154      1.00000
    325       4.2154      1.00000
    326       4.2154      1.00000
    327       4.2154      1.00000
    328       4.2154      1.00000
    329       4.2154      1.00000
    330       4.2154      1.00000
    331       4.2154      1.00000
    332       4.2154      1.00000
    333       4.2154      1.00000
    334       4.4719      1.00000
    335       4.4719      1.00000
    336       4.4719      1.00000
    337       4.4950      1.00000
    338       4.4950      1.00000
    339       4.4950      1.00000
    340       4.4950      1.00000
    341       4.4950      1.00000
    342       4.4950      1.00000
    343       4.4950      1.00000
    344       4.4950      1.00000
    345       4.5258      1.00000
    346       4.5258      1.00000
    347       4.5258      1.00000
    348       4.5258      1.00000
    349       4.5258      1.00000
    350       4.5258      1.00000
    351       4.5258      1.00000
    352       4.5258      1.00000
    353       4.5258      1.00000
    354       4.5258      1.00000
    355       4.5258      1.00000
    356       4.5258      1.00000
    357       4.5258      1.00000
    358       4.5258      1.00000
    359       4.5258      1.00000
    360       4.5258      1.00000
    361       4.5258      1.00000
    362       4.5258      1.00000
    363       4.5258      1.00000
    364       4.5258      1.00000
    365       4.5258      1.00000
    366       4.5258      1.00000
    367       4.5258      1.00000
    368       4.5258      1.00000
    369       4.6721      1.00000
    370       4.6721      1.00000
    371       4.6721      1.00000
    372       4.6721      1.00000
    373       4.6721      1.00000
    374       4.6721      1.00000
    375       4.6721      1.00000
    376       4.6721      1.00000
    377       4.6721      1.00000
    378       4.6721      1.00000
    379       4.6721      1.00000
    380       4.6721      1.00000
    381       4.6721      1.00000
    382       4.6721      1.00000
    383       4.6721      1.00000
    384       4.6721      1.00000
    385       4.9846      1.00000
    386       4.9846      1.00000
    387       4.9846      1.00000
    388       4.9846      1.00000
    389       4.9846      1.00000
    390       4.9846      1.00000
    391       5.1244      1.00000
    392       5.1244      1.00000
    393       5.1244      1.00000
    394       5.1244      1.00000
    395       5.1244      1.00000
    396       5.1244      1.00000
    397       5.1244      1.00000
    398       5.1244      1.00000
    399       5.1244      1.00000
    400       5.1244      1.00000
    401       5.1244      1.00000
    402       5.1244      1.00000
    403       5.2046      1.00000
    404       5.2046      1.00000
    405       5.2046      1.00000
    406       5.2046      1.00000
    407       5.2046      1.00000
    408       5.2046      1.00000
    409       5.2046      1.00000
    410       5.2046      1.00000
    411       5.2046      1.00000
    412       5.2046      1.00000
    413       5.2046      1.00000
    414       5.2046      1.00000
    415       5.2403      1.00000
    416       5.2403      1.00000
    417       5.2403      1.00000
    418       5.2403      1.00000
    419       5.2403      1.00000
    420       5.2403      1.00000
    421       5.2403      1.00000
    422       5.2403      1.00000
    423       5.2403      1.00000
    424       5.2403      1.00000
    425       5.2403      1.00000
    426       5.2403      1.00000
    427       5.2403      1.00000
    428       5.2403      1.00000
    429       5.2403      1.00000
    430       5.2403      1.00000
    431       5.2403      1.00000
    432       5.2403      1.00000
    433       5.2403      1.00000
    434       5.2403      1.00000
    435       5.2403      1.00000
    436       5.2403      1.00000
    437       5.2403      1.00000
    438       5.2403      1.00000
    439       5.3783      1.00000
    440       5.3783      1.00000
    441       5.3783      1.00000
    442       5.3783      1.00000
    443       5.3783      1.00000
    444       5.3783      1.00000
    445       5.3783      1.00000
    446       5.3783      1.00000
    447       5.3783      1.00000
    448       5.3783      1.00000
    449       5.3783      1.00000
    450       5.3783      1.00000
    451       5.4405      1.00000
    452       5.4405      1.00000
    453       5.4405      1.00000
    454       5.4405      1.00000
    455       5.4405      1.00000
    456       5.4405      1.00000
    457       5.4897      1.00000
    458       5.4897      1.00000
    459       5.5502      1.00000
    460       5.5502      1.00000
    461       5.5502      1.00000
    462       5.5502      1.00000
    463       5.5502      1.00000
    464       5.5502      1.00000
    465       5.5502      1.00000
    466       5.5502      1.00000
    467       5.5502      1.00000
    468       5.5502      1.00000
    469       5.5502      1.00000
    470       5.5502      1.00000
    471       5.5502      1.00000
    472       5.5502      1.00000
    473       5.5502      1.00000
    474       5.5502      1.00000
    475       5.7956      1.00000
    476       5.7956      1.00000
    477       5.7956      1.00000
    478       5.7956      1.00000
    479       5.7956      1.00000
    480       5.7956      1.00000
    481       6.0612      1.00001
    482       6.0612      1.00001
    483       6.0613      1.00001
    484       6.0613      1.00001
    485       6.0613      1.00001
    486       6.0613      1.00001
    487       6.0613      1.00001
    488       6.0613      1.00001
    489       6.0995      1.00002
    490       6.0995      1.00002
    491       6.0995      1.00002
    492       6.0995      1.00002
    493       6.0995      1.00002
    494       6.0995      1.00002
    495       6.0995      1.00002
    496       6.0995      1.00002
    497       6.0995      1.00002
    498       6.0995      1.00002
    499       6.0995      1.00002
    500       6.0995      1.00002
    501       6.0995      1.00002
    502       6.0995      1.00002
    503       6.0995      1.00002
    504       6.0995      1.00002
    505       6.0995      1.00002
    506       6.0995      1.00002
    507       6.0995      1.00002
    508       6.0995      1.00002
    509       6.0995      1.00002
    510       6.0995      1.00002
    511       6.0995      1.00002
    512       6.0995      1.00002
    513       6.1035      1.00003
    514       6.1035      1.00003
    515       6.1035      1.00003
    516       6.1707      1.00019
    517       6.1707      1.00019
    518       6.1707      1.00019
    519       6.1707      1.00019
    520       6.1707      1.00019
    521       6.1707      1.00019
    522       6.1716      1.00019
    523       6.1716      1.00019
    524       6.1716      1.00019
    525       6.1717      1.00019
    526       6.1717      1.00019
    527       6.1717      1.00019
    528       6.5712      1.00620
    529       6.5712      1.00620
    530       6.5712      1.00620
    531       6.5712      1.00614
    532       7.4774     -0.00000
    533       7.4774     -0.00000
    534       7.4774     -0.00000
    535       7.4774     -0.00000
    536       7.4774     -0.00000
    537       7.4774     -0.00000
    538       7.4774     -0.00000
    539       7.4774     -0.00000
    540       7.4774     -0.00000
    541       7.4774     -0.00000
    542       7.4774     -0.00000
    543       7.4774     -0.00000
    544       8.7122     -0.00000
    545       8.7122     -0.00000
    546       8.7122     -0.00000
    547       8.7122     -0.00000
    548       8.7122     -0.00000
    549       8.7122     -0.00000
    550       8.7122     -0.00000
    551       8.7122     -0.00000
    552       8.7122     -0.00000
    553       8.7122     -0.00000
    554       8.7122     -0.00000
    555       8.7122     -0.00000
    556       8.7122     -0.00000
    557       8.7122     -0.00000
    558       8.7122     -0.00000
    559       8.7122     -0.00000
    560       8.7122     -0.00000
    561       8.7122     -0.00000
    562       8.7122     -0.00000
    563       8.7122     -0.00000
    564       8.7122     -0.00000
    565       8.7122     -0.00000
    566       8.7122     -0.00000
    567       8.7122     -0.00000
    568       9.0896     -0.00000
    569       9.0896     -0.00000
    570       9.0896     -0.00000
    571      11.7229     -0.00000
    572      11.7229     -0.00000
    573      11.7229     -0.00000
    574      11.7229     -0.00000
    575      13.9156      0.00000
[...]
      7.261500  3.630750  3.630750     0.000545   -0.001255   -0.124993  
      9.076875  5.446125  3.630750     0.000545   -0.001255   -0.124993  
      5.446125  0.000000  5.446125     0.000545   -0.001255   -0.124993  
      7.261500  1.815375  5.446125     0.000545   -0.001255   -0.124993  
      9.076875  3.630750  5.446125     0.000545   -0.001255   -0.124993  
     10.892250  5.446125  5.446125     0.000545   -0.001255   -0.124993  
      0.000000  1.815375  1.815375     0.000545   -0.001255   -0.124993  
      1.815375  3.630750  1.815375     0.000545   -0.001255   -0.124993  
      3.630750  5.446125  1.815375     0.000545   -0.001255   -0.124993  
      5.446125  7.261500  1.815375     0.000545   -0.001255   -0.124993  
      1.815375  1.815375  3.630750     0.000545   -0.001255   -0.124993  
      3.630750  3.630750  3.630750     0.000545   -0.001255   -0.124993  
      5.446125  5.446125  3.630750     0.000545   -0.001255   -0.124993  
      7.261500  7.261500  3.630750     0.000545   -0.001255   -0.124993  
      3.630750  1.815375  5.446125     0.000545   -0.001255   -0.124993  
      5.446125  3.630750  5.446125     0.000545   -0.001255   -0.124993  
      7.261500  5.446125  5.446125     0.000545   -0.001255   -0.124993  
      9.076875  7.261500  5.446125     0.000545   -0.001255   -0.124993  
      5.446125  1.815375  7.261500     0.000545   -0.001255   -0.124993  
      7.261500  3.630750  7.261500     0.000545   -0.001255   -0.124993  
      9.076875  5.446125  7.261500     0.000545   -0.001255   -0.124993  
     10.892250  7.261500  7.261500     0.000545   -0.001255   -0.124993  
      0.000000  3.630750  3.630750     0.000545   -0.001255   -0.124993  
      1.815375  5.446125  3.630750     0.000545   -0.001255   -0.124993  
      3.630750  7.261500  3.630750     0.000545   -0.001255   -0.124993  
      5.446125  9.076875  3.630750     0.000545   -0.001255   -0.124993  
      1.815375  3.630750  5.446125     0.000545   -0.001255   -0.124993  
      3.630750  5.446125  5.446125     0.000545   -0.001255   -0.124993  
      5.446125  7.261500  5.446125     0.000545   -0.001255   -0.124993  
      7.261500  9.076875  5.446125     0.000545   -0.001255   -0.124993  
      3.630750  3.630750  7.261500     0.000545   -0.001255   -0.124993  
      5.446125  5.446125  7.261500     0.000545   -0.001255   -0.124993  
      7.261500  7.261500  7.261500     0.000545   -0.001255   -0.124993  
      9.076875  9.076875  7.261500     0.000545   -0.001255   -0.124993  
      5.446125  3.630750  9.076875     0.000545   -0.001255   -0.124993  
      7.261500  5.446125  9.076875     0.000545   -0.001255   -0.124993  
      9.076875  7.261500  9.076875     0.000545   -0.001255   -0.124993  
     10.892250  9.076875  9.076875     0.000545   -0.001255   -0.124993  
      0.000000  5.446125  5.446125     0.000545   -0.001255   -0.124993  
      1.815375  7.261500  5.446125     0.000545   -0.001255   -0.124993  
      3.630750  9.076875  5.446125     0.000545   -0.001255   -0.124993  
      5.446125 10.892250  5.446125     0.000545   -0.001255   -0.124993  
      1.815375  5.446125  7.261500     0.000545   -0.001255   -0.124993  
      3.630750  7.261500  7.261500     0.000545   -0.001255   -0.124993  
      5.446125  9.076875  7.261500     0.000545   -0.001255   -0.124993  
      7.261500 10.892250  7.261500     0.000545   -0.001255   -0.124993  
      3.630750  5.446125  9.076875     0.000545   -0.001255   -0.124993  
      5.446125  7.261500  9.076875     0.000545   -0.001255   -0.124993  
      7.261500  9.076875  9.076875     0.000545   -0.001255   -0.124993  
      9.076875 10.892250  9.076875     0.000545   -0.001255   -0.124993  
      5.446125  5.446125 10.892250     0.000545   -0.001255   -0.124993  
      7.261500  7.261500 10.892250     0.000545   -0.001255   -0.124993  
      9.076875  9.076875 10.892250     0.000545   -0.001255   -0.124993  
     10.892250 10.892250 10.892250     0.000545   -0.001255   -0.124993  
 
 192 f  =    0.000001 THz     0.000007 2PiTHz    0.000037 cm-1     0.000005 meV
             X         Y         Z           dx          dy          dz
      0.000000  0.000000  0.000000     0.018660   -0.123592    0.001322  
      1.815375  1.815375  0.000000     0.018660   -0.123592    0.001322  
      3.630750  3.630750  0.000000     0.018660   -0.123592    0.001322  
      5.446125  5.446125  0.000000     0.018660   -0.123592    0.001322  
      1.815375  0.000000  1.815375     0.018660   -0.123592    0.001322  
      3.630750  1.815375  1.815375     0.018660   -0.123592    0.001322  
      5.446125  3.630750  1.815375     0.018660   -0.123592    0.001322  
      7.261500  5.446125  1.815375     0.018660   -0.123592    0.001322  
      3.630750  0.000000  3.630750     0.018660   -0.123592    0.001322  
      5.446125  1.815375  3.630750     0.018660   -0.123592    0.001322  
      7.261500  3.630750  3.630750     0.018660   -0.123592    0.001322  
      9.076875  5.446125  3.630750     0.018660   -0.123592    0.001322  
      5.446125  0.000000  5.446125     0.018660   -0.123592    0.001322  
      7.261500  1.815375  5.446125     0.018660   -0.123592    0.001322  
      9.076875  3.630750  5.446125     0.018660   -0.123592    0.001322  
     10.892250  5.446125  5.446125     0.018660   -0.123592    0.001322  
      0.000000  1.815375  1.815375     0.018660   -0.123592    0.001322  
      1.815375  3.630750  1.815375     0.018660   -0.123592    0.001322  
      3.630750  5.446125  1.815375     0.018660   -0.123592    0.001322  
      5.446125  7.261500  1.815375     0.018660   -0.123592    0.001322  
      1.815375  1.815375  3.630750     0.018660   -0.123592    0.001322  
      3.630750  3.630750  3.630750     0.018660   -0.123592    0.001322  
      5.446125  5.446125  3.630750     0.018660   -0.123592    0.001322  
      7.261500  7.261500  3.630750     0.018660   -0.123592    0.001322  
      3.630750  1.815375  5.446125     0.018660   -0.123592    0.001322  
      5.446125  3.630750  5.446125     0.018660   -0.123592    0.001322  
      7.261500  5.446125  5.446125     0.018660   -0.123592    0.001322  
      9.076875  7.261500  5.446125     0.018660   -0.123592    0.001322  
      5.446125  1.815375  7.261500     0.018660   -0.123592    0.001322  
      7.261500  3.630750  7.261500     0.018660   -0.123592    0.001322  
      9.076875  5.446125  7.261500     0.018660   -0.123592    0.001322  
     10.892250  7.261500  7.261500     0.018660   -0.123592    0.001322  
      0.000000  3.630750  3.630750     0.018660   -0.123592    0.001322  
      1.815375  5.446125  3.630750     0.018660   -0.123592    0.001322  
      3.630750  7.261500  3.630750     0.018660   -0.123592    0.001322  
      5.446125  9.076875  3.630750     0.018660   -0.123592    0.001322  
      1.815375  3.630750  5.446125     0.018660   -0.123592    0.001322  
      3.630750  5.446125  5.446125     0.018660   -0.123592    0.001322  
      5.446125  7.261500  5.446125     0.018660   -0.123592    0.001322  
      7.261500  9.076875  5.446125     0.018660   -0.123592    0.001322  
      3.630750  3.630750  7.261500     0.018660   -0.123592    0.001322  
      5.446125  5.446125  7.261500     0.018660   -0.123592    0.001322  
      7.261500  7.261500  7.261500     0.018660   -0.123592    0.001322  
      9.076875  9.076875  7.261500     0.018660   -0.123592    0.001322  
      5.446125  3.630750  9.076875     0.018660   -0.123592    0.001322  
      7.261500  5.446125  9.076875     0.018660   -0.123592    0.001322  
      9.076875  7.261500  9.076875     0.018660   -0.123592    0.001322  
     10.892250  9.076875  9.076875     0.018660   -0.123592    0.001322  
      0.000000  5.446125  5.446125     0.018660   -0.123592    0.001322  
      1.815375  7.261500  5.446125     0.018660   -0.123592    0.001322  
      3.630750  9.076875  5.446125     0.018660   -0.123592    0.001322  
      5.446125 10.892250  5.446125     0.018660   -0.123592    0.001322  
      1.815375  5.446125  7.261500     0.018660   -0.123592    0.001322  
      3.630750  7.261500  7.261500     0.018660   -0.123592    0.001322  
      5.446125  9.076875  7.261500     0.018660   -0.123592    0.001322  
      7.261500 10.892250  7.261500     0.018660   -0.123592    0.001322  
      3.630750  5.446125  9.076875     0.018660   -0.123592    0.001322  
      5.446125  7.261500  9.076875     0.018660   -0.123592    0.001322  
      7.261500  9.076875  9.076875     0.018660   -0.123592    0.001322  
      9.076875 10.892250  9.076875     0.018660   -0.123592    0.001322  
      5.446125  5.446125 10.892250     0.018660   -0.123592    0.001322  
      7.261500  7.261500 10.892250     0.018660   -0.123592    0.001322  
      9.076875  9.076875 10.892250     0.018660   -0.123592    0.001322  
     10.892250 10.892250 10.892250     0.018660   -0.123592    0.001322  
 

 ELASTIC MODULI CONTR FROM IONIC RELAXATION (kBar)
 Direction    XX          YY          ZZ          XY          YZ          ZX
 --------------------------------------------------------------------------------
 XX           0.0000     -0.0000      0.0000      0.0000     -0.0000     -0.0000
 YY          -0.0000      0.0000     -0.0000     -0.0000      0.0000     -0.0000
 ZZ           0.0000      0.0000      0.0000      0.0000     -0.0000     -0.0000
 XY           0.0000     -0.0000      0.0000      0.0000     -0.0000      0.0000
 YZ          -0.0000      0.0000      0.0000     -0.0000     -0.0000      0.0000
 ZX          -0.0000     -0.0000     -0.0000      0.0000      0.0000     -0.0000
 --------------------------------------------------------------------------------



--------------------------------------------------------------------------------------------------------


  LATTYP: Found a face centered cubic cell.
 ALAT       =    14.5230000000
  
  Lattice vectors:
  
 A1 = (   0.0000000000,   7.2615000000,   7.2615000000)
 A2 = (   7.2615000000,   0.0000000000,   7.2615000000)
 A3 = (   7.2615000000,   7.2615000000,   0.0000000000)


Analysis of symmetry for initial positions (statically):
=====================================================================
 Subroutine PRICEL returns following result:
 
  LATTYP: Found a face centered cubic cell.
 ALAT       =     3.6307500000
  
  Lattice vectors:
  
 A1 = (   0.0000000000,   1.8153750000,   1.8153750000)
 A2 = (   1.8153750000,   0.0000000000,   1.8153750000)
 A3 = (   1.8153750000,   1.8153750000,   0.0000000000)
 
  64 primitive cells build up your supercell.
 

 Routine SETGRP: Setting up the symmetry group for a 
 face centered cubic supercell.


 Subroutine GETGRP returns: Found 48 space group operations
 (whereof 48 operations were pure point group operations)
 out of a pool of 48 trial point group operations.


The static configuration has the point symmetry O_h .


Analysis of symmetry for dynamics (positions and initial velocities):
=====================================================================
 Subroutine PRICEL returns following result:
 
  LATTYP: Found a face centered cubic cell.
 ALAT       =     3.6307500000
  
  Lattice vectors:
  
 A1 = (   0.0000000000,   1.8153750000,   1.8153750000)
 A2 = (   1.8153750000,   0.0000000000,   1.8153750000)
 A3 = (   1.8153750000,   1.8153750000,   0.0000000000)
 
  64 primitive cells build up your supercell.
 

 Routine SETGRP: Setting up the symmetry group for a 
 face centered cubic supercell.


 Subroutine GETGRP returns: Found 48 space group operations
 (whereof 48 operations were pure point group operations)
 out of a pool of 48 trial point group operations.


The dynamic configuration has the point symmetry O_h .


Analysis of structural, dynamic, and magnetic symmetry:
=====================================================================
 Subroutine PRICEL returns following result:
 
  LATTYP: Found a face centered cubic cell.
 ALAT       =     3.6307500000
  
  Lattice vectors:
  
 A1 = (   0.0000000000,   1.8153750000,   1.8153750000)
 A2 = (   1.8153750000,   0.0000000000,   1.8153750000)
 A3 = (   1.8153750000,   1.8153750000,   0.0000000000)
 
  64 primitive cells build up your supercell.
 

 Routine SETGRP: Setting up the symmetry group for a 
 face centered cubic supercell.


 Subroutine GETGRP returns: Found 48 space group operations
 (whereof 48 operations were pure point group operations)
 out of a pool of 48 trial point group operations.


The magnetic configuration has the point symmetry O_h .


 Subroutine INISYM returns: Found 48 space group operations
 (whereof 48 operations are pure point group operations),
 and found    64 'primitive' translations

 
 KPOINTS: Zr 15x15x15                             

Automatic generation of k-mesh.
Space group operators:
 irot       det(A)        alpha          n_x          n_y          n_z        tau_x        tau_y        tau_z
    1     1.000000     0.000000     1.000000     0.000000     0.000000     0.000000     0.000000     0.000000
    2    -1.000000     0.000000     1.000000     0.000000     0.000000     0.000000     0.000000     0.000000
    3     1.000000   120.000000    -0.577350    -0.577350    -0.577350     0.000000     0.000000     0.000000
    4    -1.000000   120.000000    -0.577350    -0.577350    -0.577350     0.000000     0.000000     0.000000
    5     1.000000   120.000000     0.577350     0.577350     0.577350     0.000000     0.000000     0.000000
    6    -1.000000   120.000000     0.577350     0.577350     0.577350     0.000000     0.000000     0.000000
    7     1.000000    90.000000     0.000000     0.000000    -1.000000     0.000000     0.000000     0.000000
    8    -1.000000    90.000000     0.000000     0.000000    -1.000000     0.000000     0.000000     0.000000
    9     1.000000   180.000000     0.000000     0.707107     0.707107     0.000000     0.000000     0.000000
   10    -1.000000   180.000000     0.000000     0.707107     0.707107     0.000000     0.000000     0.000000
   11     1.000000    90.000000     0.000000     1.000000     0.000000     0.000000     0.000000     0.000000
   12    -1.000000    90.000000     0.000000     1.000000     0.000000     0.000000     0.000000     0.000000
   13     1.000000   180.000000     0.000000     0.000000     1.000000     0.000000     0.000000     0.000000
   14    -1.000000   180.000000     0.000000     0.000000     1.000000     0.000000     0.000000     0.000000
   15     1.000000   120.000000    -0.577350     0.577350     0.577350     0.000000     0.000000     0.000000
   16    -1.000000   120.000000    -0.577350     0.577350     0.577350     0.000000     0.000000     0.000000
   17     1.000000   120.000000    -0.577350     0.577350    -0.577350     0.000000     0.000000     0.000000
   18    -1.000000   120.000000    -0.577350     0.577350    -0.577350     0.000000     0.000000     0.000000
   19     1.000000    90.000000     0.000000     0.000000     1.000000     0.000000     0.000000     0.000000
   20    -1.000000    90.000000     0.000000     0.000000     1.000000     0.000000     0.000000     0.000000
   21     1.000000    90.000000    -1.000000     0.000000     0.000000     0.000000     0.000000     0.000000
   22    -1.000000    90.000000    -1.000000     0.000000     0.000000     0.000000     0.000000     0.000000
   23     1.000000   180.000000     0.707107     0.000000     0.707107     0.000000     0.000000     0.000000
   24    -1.000000   180.000000     0.707107     0.000000     0.707107     0.000000     0.000000     0.000000
   25     1.000000   120.000000     0.577350    -0.577350     0.577350     0.000000     0.000000     0.000000
   26    -1.000000   120.000000     0.577350    -0.577350     0.577350     0.000000     0.000000     0.000000
   27     1.000000   120.000000    -0.577350    -0.577350     0.577350     0.000000     0.000000     0.000000
   28    -1.000000   120.000000    -0.577350    -0.577350     0.577350     0.000000     0.000000     0.000000
   29     1.000000   180.000000     1.000000     0.000000     0.000000     0.000000     0.000000     0.000000
   30    -1.000000   180.000000     1.000000     0.000000     0.000000     0.000000     0.000000     0.000000
   31     1.000000    90.000000     0.000000    -1.000000     0.000000     0.000000     0.000000     0.000000
   32    -1.000000    90.000000     0.000000    -1.000000     0.000000     0.000000     0.000000     0.000000
   33     1.000000   180.000000     0.707107     0.707107     0.000000     0.000000     0.000000     0.000000
   34    -1.000000   180.000000     0.707107     0.707107     0.000000     0.000000     0.000000     0.000000
   35     1.000000    90.000000     1.000000     0.000000     0.000000     0.000000     0.000000     0.000000
   36    -1.000000    90.000000     1.000000     0.000000     0.000000     0.000000     0.000000     0.000000
   37     1.000000   120.000000     0.577350    -0.577350    -0.577350     0.000000     0.000000     0.000000
   38    -1.000000   120.000000     0.577350    -0.577350    -0.577350     0.000000     0.000000     0.000000
   39     1.000000   180.000000     0.000000     1.000000     0.000000     0.000000     0.000000     0.000000
   40    -1.000000   180.000000     0.000000     1.000000     0.000000     0.000000     0.000000     0.000000
   41     1.000000   120.000000     0.577350     0.577350    -0.577350     0.000000     0.000000     0.000000
   42    -1.000000   120.000000     0.577350     0.577350    -0.577350     0.000000     0.000000     0.000000
   43     1.000000   180.000000     0.000000    -0.707107     0.707107     0.000000     0.000000     0.000000
   44    -1.000000   180.000000     0.000000    -0.707107     0.707107     0.000000     0.000000     0.000000
   45     1.000000   180.000000     0.707107    -0.707107     0.000000     0.000000     0.000000     0.000000
   46    -1.000000   180.000000     0.707107    -0.707107     0.000000     0.000000     0.000000     0.000000
   47     1.000000   180.000000     0.707107     0.000000    -0.707107     0.000000     0.000000     0.000000
   48    -1.000000   180.000000     0.707107     0.000000    -0.707107     0.000000     0.000000     0.000000
 
 Subroutine IBZKPT returns following result:
 ===========================================
 
 Found      4 irreducible k-points:
 
 Following reciprocal coordinates:
            Coordinates               Weight
  0.000000  0.000000  0.000000      1.000000
  0.333333  0.000000  0.000000      8.000000
  0.333333  0.333333  0.000000      6.000000
 -0.333333  0.333333  0.000000     12.000000
 
 Following cartesian coordinates:
            Coordinates               Weight
  0.000000  0.000000  0.000000      1.000000
 -0.022952  0.022952  0.022952      8.000000
  0.000000  0.000000  0.045904      6.000000
  0.045904 -0.045904  0.000000     12.000000
 
 writing wavefunctions
     LOOP+:  cpu time11131.8887: real time11124.5952
    4ORBIT:  cpu time    0.0000: real time    0.0000

 total amount of memory used by VASP on root node  1437150. kBytes
========================================================================

   base      :      30000. kBytes
   nonlr-proj:      46103. kBytes
   fftplans  :      72476. kBytes
   grid      :     173932. kBytes
   one-center:       1990. kBytes
   wavefun   :    1112649. kBytes
 
  
  
 General timing and accounting informations for this job:
 ========================================================
  
                  Total CPU time used (sec):    53838.047
                            User time (sec):    53800.330
                          System time (sec):       37.718
                         Elapsed time (sec):    53802.763
  
                   Maximum memory used (kb):     3662240.
                   Average memory used (kb):           0.
  
                          Minor page faults:       319337
                          Major page faults:            3
                 Voluntary context switches:          763
