<?xml version="1.0" encoding="ISO-8859-1"?>
<modeling>
 <generator>
  <i name="program" type="string">vasp </i>
  <i name="version" type="string">5.4.1  </i>
  <i name="subversion" type="string">05Feb16 (build Oct 12 2016 17:31:35) complex                          parallel </i>
  <i name="platform" type="string">IFC91_ompi </i>
  <i name="date" type="string">2020 09 07 </i>
  <i name="time" type="string">16:22:06 </i>
 </generator>
 <incar>
  <i type="string" name="SYSTEM"> phonon of Zr bcc - omiga</i>
  <i type="string" name="PREC">a</i>
  <i type="int" name="ISPIN">     2</i>
  <i type="int" name="IBRION">     6</i>
  <i type="int" name="NFREE">     4</i>
  <i name="EDIFF">      0.00000100</i>
  <i type="int" name="NSW">     1</i>
  <v name="MAGMOM">      1.00000000      1.00000000      1.00000000      1.00000000      1.00000000      1.00000000      1.00000000      1.00000000      1.00000000      1.00000000      1.00000000      1.00000000      1.00000000      1.00000000      1.00000000      1.00000000      1.00000000      1.00000000      1.00000000      1.00000000
      1.00000000      1.00000000      1.00000000      1.00000000      1.00000000      1.00000000      1.00000000      1.00000000      1.00000000      1.00000000      1.00000000      1.00000000      1.00000000      1.00000000      1.00000000      1.00000000      1.00000000      1.00000000      1.00000000      1.00000000
      1.00000000      1.00000000      1.00000000      1.00000000      1.00000000      1.00000000      1.00000000      1.00000000      1.00000000      1.00000000      1.00000000      1.00000000      1.00000000      1.00000000      1.00000000      1.00000000      1.00000000      1.00000000      1.00000000      1.00000000
      1.00000000      1.00000000      1.00000000      1.00000000</v>
  <i type="string" name="LREAL">Auto</i>
  <i type="int" name="ISMEAR">     1</i>
  <i type="int" name="NWRITE">     0</i>
  <v type="int" name="KPOINT_BSE">    -1     0     0     0</v>
 </incar>
 <kpoints>
  <generation param="Gamma">
   <v type="int" name="divisions">       3        3        3 </v>
   <v name="usershift">      0.00000000       0.00000000       0.00000000 </v>
   <v name="genvec1">      0.33333333       0.00000000       0.00000000 </v>
   <v name="genvec2">      0.00000000       0.33333333       0.00000000 </v>
   <v name="genvec3">      0.00000000       0.00000000       0.33333333 </v>
   <v name="shift">      0.00000000       0.00000000       0.00000000 </v>
  </generation>
  <varray name="kpointlist" >
   <v>       0.00000000       0.00000000       0.00000000 </v>
   <v>       0.33333333       0.00000000       0.00000000 </v>
   <v>       0.33333333       0.33333333       0.00000000 </v>
   <v>      -0.33333333       0.33333333       0.00000000 </v>
  </varray>
  <varray name="weights" >
   <v>       0.03703704 </v>
   <v>       0.29629630 </v>
   <v>       0.22222222 </v>
   <v>       0.44444444 </v>
  </varray>
 </kpoints>
 <parameters>
  <separator name="general" >
   <i type="string" name="SYSTEM">phonon of Zr bcc - omiga</i>
   <i type="logical" name="LCOMPAT"> F  </i>
  </separator>
  <separator name="electronic" >
   <i type="string" name="PREC">a</i>
   <i name="ENMAX">    367.94500000</i>
   <i name="ENAUG">    703.44300000</i>
   <i name="EDIFF">      0.00000100</i>
   <i type="int" name="IALGO">    38</i>
   <i type="int" name="IWAVPR">    11</i>
   <i type="int" name="NBANDS">   646</i>
   <i name="NELECT">   1024.00000000</i>
   <i type="int" name="TURBO">     0</i>
   <i type="int" name="IRESTART">     0</i>
   <i type="int" name="NREBOOT">     0</i>
   <i type="int" name="NMIN">     0</i>
   <i name="EREF">      0.00000000</i>
   <separator name="electronic smearing" >
    <i type="int" name="ISMEAR">     1</i>
    <i name="SIGMA">      0.20000000</i>
    <i name="KSPACING">      0.50000000</i>
    <i type="logical" name="KGAMMA"> T  </i>
   </separator>
   <separator name="electronic projectors" >
    <i type="logical" name="LREAL"> T  </i>
    <v name="ROPT">     -0.00025000</v>
    <i type="int" name="LMAXPAW">  -100</i>
    <i type="int" name="LMAXMIX">     2</i>
    <i type="logical" name="NLSPLINE"> F  </i>
   </separator>
   <separator name="electronic startup" >
    <i type="int" name="ISTART">     0</i>
    <i type="int" name="ICHARG">     2</i>
    <i type="int" name="INIWAV">     1</i>
   </separator>
   <separator name="electronic spin" >
    <i type="int" name="ISPIN">     2</i>
    <i type="logical" name="LNONCOLLINEAR"> F  </i>
    <v name="MAGMOM">      1.00000000      1.00000000      1.00000000      1.00000000      1.00000000      1.00000000      1.00000000      1.00000000      1.00000000      1.00000000      1.00000000      1.00000000      1.00000000      1.00000000      1.00000000      1.00000000      1.00000000      1.00000000      1.00000000      1.00000000
      1.00000000      1.00000000      1.00000000      1.00000000      1.00000000      1.00000000      1.00000000      1.00000000      1.00000000      1.00000000      1.00000000      1.00000000      1.00000000      1.00000000      1.00000000      1.00000000      1.00000000      1.00000000      1.00000000      1.00000000
      1.00000000      1.00000000      1.00000000      1.00000000      1.00000000      1.00000000      1.00000000      1.00000000      1.00000000      1.00000000      1.00000000      1.00000000      1.00000000      1.00000000      1.00000000      1.00000000      1.00000000      1.00000000      1.00000000      1.00000000
      1.00000000      1.00000000      1.00000000      1.00000000</v>
    <i name="NUPDOWN">     -1.00000000</i>
    <i type="logical" name="LSORBIT"> F  </i>
    <v name="SAXIS">      0.00000000      0.00000000      1.00000000</v>
    <i type="logical" name="LSPIRAL"> F  </i>
    <v name="QSPIRAL">      0.00000000      0.00000000      0.00000000</v>
    <i type="logical" name="LZEROZ"> F  </i>
   </separator>
   <separator name="electronic exchange-correlation" >
    <i type="logical" name="LASPH"> F  </i>
    <i type="logical" name="LMETAGGA"> F  </i>
   </separator>
   <separator name="electronic convergence" >
    <i type="int" name="NELM">    60</i>
    <i type="int" name="NELMDL">    -5</i>
    <i type="int" name="NELMIN">     2</i>
    <i name="ENINI">    367.94500000</i>
    <separator name="electronic convergence detail" >
     <i type="logical" name="LDIAG"> T  </i>
     <i type="logical" name="LSUBROT"> F  </i>
     <i name="WEIMIN">      0.00100000</i>
     <i name="EBREAK">      0.00000000</i>
     <i name="DEPER">      0.30000000</i>
     <i type="int" name="NRMM">     4</i>
     <i name="TIME">      0.40000000</i>
    </separator>
   </separator>
   <separator name="electronic mixer" >
    <i name="AMIX">      0.40000000</i>
    <i name="BMIX">      1.00000000</i>
    <i name="AMIN">      0.10000000</i>
    <i name="AMIX_MAG">      1.60000000</i>
    <i name="BMIX_MAG">      1.00000000</i>
    <separator name="electronic mixer details" >
     <i type="int" name="IMIX">     4</i>
     <i type="logical" name="MIXFIRST"> F  </i>
     <i type="int" name="MAXMIX">   -45</i>
     <i name="WC">    100.00000000</i>
     <i type="int" name="INIMIX">     1</i>
     <i type="int" name="MIXPRE">     1</i>
     <i type="int" name="MREMOVE">     5</i>
    </separator>
   </separator>
   <separator name="electronic dipolcorrection" >
    <i type="logical" name="LDIPOL"> F  </i>
    <i type="logical" name="LMONO"> F  </i>
    <i type="int" name="IDIPOL">     0</i>
    <i name="EPSILON">      1.00000000</i>
    <v name="DIPOL">   -100.00000000   -100.00000000   -100.00000000</v>
    <i name="EFIELD">      0.00000000</i>
   </separator>
  </separator>
  <separator name="grids" >
   <i type="int" name="NGX">    64</i>
   <i type="int" name="NGY">    64</i>
   <i type="int" name="NGZ">    64</i>
   <i type="int" name="NGXF">   128</i>
   <i type="int" name="NGYF">   128</i>
   <i type="int" name="NGZF">   128</i>
   <i type="logical" name="ADDGRID"> F  </i>
  </separator>
  <separator name="ionic" >
   <i type="int" name="NSW">   805</i>
   <i type="int" name="IBRION">     6</i>
   <i type="int" name="ISIF">     2</i>
   <i name="PSTRESS">      0.00000000</i>
   <i name="EDIFFG">      0.00001000</i>
   <i type="int" name="NFREE">     4</i>
   <i name="POTIM">      0.50000000</i>
   <i name="SMASS">     -3.00000000</i>
   <i name="SCALEE">      1.00000000</i>
  </separator>
  <separator name="ionic md" >
   <i name="TEBEG">      0.00010000</i>
   <i name="TEEND">      0.00010000</i>
   <i type="int" name="NBLOCK">     1</i>
   <i type="int" name="KBLOCK">     1</i>
   <i type="int" name="NPACO">   256</i>
   <i name="APACO">     16.00000000</i>
  </separator>
  <separator name="symmetry" >
   <i type="int" name="ISYM">     2</i>
   <i name="SYMPREC">      0.00001000</i>
  </separator>
  <separator name="dos" >
   <i type="logical" name="LORBIT"> F  </i>
   <v name="RWIGS">     -1.00000000</v>
   <i type="int" name="NEDOS">   301</i>
   <i name="EMIN">     10.00000000</i>
   <i name="EMAX">    -10.00000000</i>
   <i name="EFERMI">      0.00000000</i>
  </separator>
  <separator name="writing" >
   <i type="int" name="NWRITE">     0</i>
   <i type="logical" name="LWAVE"> T  </i>
   <i type="logical" name="LCHARG"> T  </i>
   <i type="logical" name="LPARD"> F  </i>
   <i type="logical" name="LVTOT"> F  </i>
   <i type="logical" name="LVHAR"> F  </i>
   <i type="logical" name="LELF"> F  </i>
   <i type="logical" name="LOPTICS"> F  </i>
   <v name="STM">      0.00000000      0.00000000      0.00000000      0.00000000      0.00000000      0.00000000      0.00000000</v>
  </separator>
  <separator name="performance" >
   <i type="int" name="NPAR">     1</i>
   <i type="int" name="NSIM">     4</i>
   <i type="int" name="NBLK">    -1</i>
   <i type="logical" name="LPLANE"> T  </i>
   <i type="logical" name="LSCALAPACK"> T  </i>
   <i type="logical" name="LSCAAWARE"> F  </i>
   <i type="logical" name="LSCALU"> F  </i>
   <i type="logical" name="LASYNC"> F  </i>
   <i type="logical" name="LORBITALREAL"> F  </i>
  </separator>
  <separator name="miscellaneous" >
   <i type="int" name="IDIOT">     3</i>
   <i type="logical" name="LMUSIC"> F  </i>
   <v name="POMASS">     58.69000000</v>
   <v name="DARWINR">      0.00000000</v>
   <v name="DARWINV">      1.00000000</v>
   <i type="logical" name="LCORR"> T  </i>
  </separator>
  <i type="logical" name="GGA_COMPAT"> T  </i>
  <i type="logical" name="LBERRY"> F  </i>
  <i type="int" name="ICORELEVEL">     0</i>
  <i type="logical" name="LDAU"> F  </i>
  <i type="int" name="I_CONSTRAINED_M">     0</i>
  <separator name="electronic exchange-correlation" >
   <i type="string" name="GGA">--</i>
   <i type="int" name="VOSKOWN">     0</i>
   <i type="logical" name="LHFCALC"> F  </i>
   <i type="string" name="PRECFOCK"></i>
   <i type="logical" name="LSYMGRAD"> F  </i>
   <i type="logical" name="LHFONE"> F  </i>
   <i type="logical" name="LRHFCALC"> F  </i>
   <i type="logical" name="LTHOMAS"> F  </i>
   <i type="logical" name="LMODELHF"> F  </i>
   <i name="ENCUT4O">     -1.00000000</i>
   <i type="int" name="EXXOEP">     0</i>
   <i type="int" name="FOURORBIT">     0</i>
   <i name="AEXX">      0.00000000</i>
   <i name="HFALPHA">      0.00000000</i>
   <i name="MCALPHA">      0.00000000</i>
   <i name="ALDAX">      1.00000000</i>
   <i name="AGGAX">      1.00000000</i>
   <i name="ALDAC">      1.00000000</i>
   <i name="AGGAC">      1.00000000</i>
   <i type="int" name="NKREDX">     1</i>
   <i type="int" name="NKREDY">     1</i>
   <i type="int" name="NKREDZ">     1</i>
   <i type="logical" name="SHIFTRED"> F  </i>
   <i type="logical" name="ODDONLY"> F  </i>
   <i type="logical" name="EVENONLY"> F  </i>
   <i type="int" name="LMAXFOCK">     0</i>
   <i type="int" name="NMAXFOCKAE">     0</i>
   <i type="logical" name="LFOCKAEDFT"> F  </i>
   <i name="HFSCREEN">      0.00000000</i>
   <i name="HFSCREENC">      0.00000000</i>
   <i type="int" name="NBANDSGWLOW">     0</i>
  </separator>
  <separator name="vdW DFT" >
   <i type="logical" name="LUSE_VDW"> F  </i>
   <i name="Zab_VDW">     -0.84910000</i>
   <i name="PARAM1">      0.12340000</i>
   <i name="PARAM2">      1.00000000</i>
   <i name="PARAM3">      0.00000000</i>
  </separator>
  <separator name="model GW" >
   <i type="int" name="MODEL_GW">     0</i>
   <i name="MODEL_EPS0">      7.17927017</i>
   <i name="MODEL_ALPHA">      1.00000000</i>
  </separator>
  <separator name="linear response parameters" >
   <i type="logical" name="LEPSILON"> F  </i>
   <i type="logical" name="LRPA"> F  </i>
   <i type="logical" name="LNABLA"> F  </i>
   <i type="logical" name="LVEL"> F  </i>
   <i type="int" name="KINTER">     0</i>
   <i name="CSHIFT">      0.10000000</i>
   <i name="OMEGAMAX">     -1.00000000</i>
   <i name="DEG_THRESHOLD">      0.00200000</i>
  </separator>
  <separator name="orbital magnetization" >
   <i type="logical" name="NUCIND"> F  </i>
   <v name="MAGPOS">      0.00000000      0.00000000      0.00000000</v>
   <i type="logical" name="LNICSALL"> T  </i>
   <i type="logical" name="ORBITALMAG"> F  </i>
   <i type="logical" name="LMAGBLOCH"> F  </i>
   <i type="logical" name="LCHIMAG"> F  </i>
   <i type="logical" name="LGAUGE"> T  </i>
   <i type="int" name="MAGATOM">     0</i>
   <v name="MAGDIPOL">      0.00000000      0.00000000      0.00000000</v>
   <v name="AVECCONST">      0.00000000      0.00000000      0.00000000</v>
  </separator>
  <separator name="response functions" >
   <i type="logical" name="LADDER"> F  </i>
   <i type="logical" name="LFXC"> F  </i>
   <i type="logical" name="LHARTREE"> T  </i>
   <i type="int" name="IBSE">     0</i>
   <v type="int" name="KPOINT">    -1     0     0     0</v>
   <i type="logical" name="LTCTE"> F  </i>
   <i type="logical" name="LTETE"> F  </i>
   <i type="logical" name="LTRIPLET"> F  </i>
   <i type="logical" name="LFXCEPS"> F  </i>
   <i type="logical" name="LFXHEG"> F  </i>
   <i type="int" name="NATURALO">     0</i>
   <i type="logical" name="L2ORDER"> F  </i>
   <i type="logical" name="LUSEW"> F  </i>
   <i name="ENCUTGW">     -2.00000000</i>
   <i name="ENCUTGWSOFT">     -2.00000000</i>
   <i name="ENCUTLF">     -1.00000000</i>
   <i type="int" name="LMAXMP2">    -1</i>
   <i name="SCISSOR">      0.00000000</i>
   <i type="int" name="NOMEGA">     0</i>
   <i type="int" name="NOMEGAR">     0</i>
   <i type="int" name="NBANDSGW">    -1</i>
   <i type="int" name="NBANDSO">    -1</i>
   <i type="int" name="NBANDSV">    -1</i>
   <i type="int" name="NELM">     1</i>
   <i type="int" name="NELMHF">     1</i>
   <i type="int" name="DIM">     3</i>
   <i type="int" name="ANTIRES">     0</i>
   <i name="OMEGAMAX">    -30.00000000</i>
   <i name="OMEGAMIN">    -30.00000000</i>
   <i name="OMEGATL">   -200.00000000</i>
   <i type="int" name="OMEGAGRID">     0</i>
   <i name="CSHIFT">     -0.10000000</i>
   <i type="logical" name="SELFENERGY"> F  </i>
   <i type="logical" name="LSPECTRAL"> F  </i>
   <i type="logical" name="LSPECTRALGW"> F  </i>
   <i type="logical" name="LSINGLES"> F  </i>
   <i type="logical" name="LFERMIGW"> F  </i>
   <i type="logical" name="ODDONLYGW"> F  </i>
   <i type="logical" name="EVENONLYGW"> F  </i>
   <i type="int" name="NKREDLFX">     1</i>
   <i type="int" name="NKREDLFY">     1</i>
   <i type="int" name="NKREDLFZ">     1</i>
   <i type="int" name="MAXMEM">  1800</i>
   <i type="int" name="TELESCOPE">     0</i>
   <i type="int" name="TAUPAR">     1</i>
   <i type="int" name="OMEGAPAR">    -1</i>
   <i name="LAMBDA">      1.00000000</i>
  </separator>
  <separator name="External order field" >
   <i name="OFIELD_KAPPA">      0.00000000</i>
   <v name="OFIELD_K">      0.00000000      0.00000000      0.00000000</v>
   <i name="OFIELD_Q6_NEAR">      0.00000000</i>
   <i name="OFIELD_Q6_FAR">      0.00000000</i>
   <i name="OFIELD_A">      0.00000000</i>
  </separator>
 </parameters>
 <atominfo>
  <atoms>      64 </atoms>
  <types>       1 </types>
  <array name="atoms" >
   <dimension dim="1">ion</dimension>
   <field type="string">element</field>
   <field type="int">atomtype</field>
   <set>
    <rc><c>Ni</c><c>   1</c></rc>
    <rc><c>Ni</c><c>   1</c></rc>
    <rc><c>Ni</c><c>   1</c></rc>
    <rc><c>Ni</c><c>   1</c></rc>
    <rc><c>Ni</c><c>   1</c></rc>
    <rc><c>Ni</c><c>   1</c></rc>
    <rc><c>Ni</c><c>   1</c></rc>
    <rc><c>Ni</c><c>   1</c></rc>
    <rc><c>Ni</c><c>   1</c></rc>
    <rc><c>Ni</c><c>   1</c></rc>
    <rc><c>Ni</c><c>   1</c></rc>
    <rc><c>Ni</c><c>   1</c></rc>
    <rc><c>Ni</c><c>   1</c></rc>
    <rc><c>Ni</c><c>   1</c></rc>
    <rc><c>Ni</c><c>   1</c></rc>
    <rc><c>Ni</c><c>   1</c></rc>
    <rc><c>Ni</c><c>   1</c></rc>
    <rc><c>Ni</c><c>   1</c></rc>
    <rc><c>Ni</c><c>   1</c></rc>
    <rc><c>Ni</c><c>   1</c></rc>
    <rc><c>Ni</c><c>   1</c></rc>
    <rc><c>Ni</c><c>   1</c></rc>
    <rc><c>Ni</c><c>   1</c></rc>
    <rc><c>Ni</c><c>   1</c></rc>
    <rc><c>Ni</c><c>   1</c></rc>
    <rc><c>Ni</c><c>   1</c></rc>
    <rc><c>Ni</c><c>   1</c></rc>
    <rc><c>Ni</c><c>   1</c></rc>
    <rc><c>Ni</c><c>   1</c></rc>
    <rc><c>Ni</c><c>   1</c></rc>
    <rc><c>Ni</c><c>   1</c></rc>
    <rc><c>Ni</c><c>   1</c></rc>
    <rc><c>Ni</c><c>   1</c></rc>
    <rc><c>Ni</c><c>   1</c></rc>
    <rc><c>Ni</c><c>   1</c></rc>
    <rc><c>Ni</c><c>   1</c></rc>
    <rc><c>Ni</c><c>   1</c></rc>
    <rc><c>Ni</c><c>   1</c></rc>
    <rc><c>Ni</c><c>   1</c></rc>
    <rc><c>Ni</c><c>   1</c></rc>
    <rc><c>Ni</c><c>   1</c></rc>
    <rc><c>Ni</c><c>   1</c></rc>
    <rc><c>Ni</c><c>   1</c></rc>
    <rc><c>Ni</c><c>   1</c></rc>
    <rc><c>Ni</c><c>   1</c></rc>
    <rc><c>Ni</c><c>   1</c></rc>
    <rc><c>Ni</c><c>   1</c></rc>
    <rc><c>Ni</c><c>   1</c></rc>
    <rc><c>Ni</c><c>   1</c></rc>
    <rc><c>Ni</c><c>   1</c></rc>
    <rc><c>Ni</c><c>   1</c></rc>
    <rc><c>Ni</c><c>   1</c></rc>
    <rc><c>Ni</c><c>   1</c></rc>
    <rc><c>Ni</c><c>   1</c></rc>
    <rc><c>Ni</c><c>   1</c></rc>
    <rc><c>Ni</c><c>   1</c></rc>
    <rc><c>Ni</c><c>   1</c></rc>
    <rc><c>Ni</c><c>   1</c></rc>
    <rc><c>Ni</c><c>   1</c></rc>
    <rc><c>Ni</c><c>   1</c></rc>
    <rc><c>Ni</c><c>   1</c></rc>
    <rc><c>Ni</c><c>   1</c></rc>
    <rc><c>Ni</c><c>   1</c></rc>
    <rc><c>Ni</c><c>   1</c></rc>
   </set>
  </array>
  <array name="atomtypes" >
   <dimension dim="1">type</dimension>
   <field type="int">atomspertype</field>
   <field type="string">element</field>
   <field>mass</field>
   <field>valence</field>
   <field type="string">pseudopotential</field>
   <set>
    <rc><c>  64</c><c>Ni</c><c>     58.69000000</c><c>     16.00000000</c><c> PAW_PBE Ni_pv 06Sep2000                </c></rc>
   </set>
  </array>
 </atominfo>
 <structure name="initialpos" >
  <crystal>
   <varray name="basis" >
    <v>       0.00000000       7.26150000       7.26150000 </v>
    <v>       7.26150000       0.00000000       7.26150000 </v>
    <v>       7.26150000       7.26150000       0.00000000 </v>
   </varray>
   <i name="volume">    765.78881842 </i>
   <varray name="rec_basis" >
    <v>      -0.06885630       0.06885630       0.06885630 </v>
    <v>       0.06885630      -0.06885630       0.06885630 </v>
    <v>       0.06885630       0.06885630      -0.06885630 </v>
   </varray>
  </crystal>
  <varray name="positions" >
   <v>       0.00000000       0.00000000       0.00000000 </v>
   <v>       0.00000000       0.00000000       0.25000000 </v>
   <v>       0.00000000       0.00000000       0.50000000 </v>
   <v>       0.00000000       0.00000000       0.75000000 </v>
   <v>       0.00000000       0.25000000       0.00000000 </v>
   <v>       0.00000000       0.25000000       0.25000000 </v>
   <v>       0.00000000       0.25000000       0.50000000 </v>
   <v>       0.00000000       0.25000000       0.75000000 </v>
   <v>       0.00000000       0.50000000       0.00000000 </v>
   <v>       0.00000000       0.50000000       0.25000000 </v>
   <v>       0.00000000       0.50000000       0.50000000 </v>
   <v>       0.00000000       0.50000000       0.75000000 </v>
   <v>       0.00000000       0.75000000       0.00000000 </v>
   <v>       0.00000000       0.75000000       0.25000000 </v>
   <v>       0.00000000       0.75000000       0.50000000 </v>
   <v>       0.00000000       0.75000000       0.75000000 </v>
   <v>       0.25000000       0.00000000       0.00000000 </v>
   <v>       0.25000000       0.00000000       0.25000000 </v>
   <v>       0.25000000       0.00000000       0.50000000 </v>
   <v>       0.25000000       0.00000000       0.75000000 </v>
   <v>       0.25000000       0.25000000       0.00000000 </v>
   <v>       0.25000000       0.25000000       0.25000000 </v>
   <v>       0.25000000       0.25000000       0.50000000 </v>
   <v>       0.25000000       0.25000000       0.75000000 </v>
   <v>       0.25000000       0.50000000       0.00000000 </v>
   <v>       0.25000000       0.50000000       0.25000000 </v>
   <v>       0.25000000       0.50000000       0.50000000 </v>
   <v>       0.25000000       0.50000000       0.75000000 </v>
   <v>       0.25000000       0.75000000       0.00000000 </v>
   <v>       0.25000000       0.75000000       0.25000000 </v>
   <v>       0.25000000       0.75000000       0.50000000 </v>
   <v>       0.25000000       0.75000000       0.75000000 </v>
   <v>       0.50000000       0.00000000       0.00000000 </v>
   <v>       0.50000000       0.00000000       0.25000000 </v>
   <v>       0.50000000       0.00000000       0.50000000 </v>
   <v>       0.50000000       0.00000000       0.75000000 </v>
   <v>       0.50000000       0.25000000       0.00000000 </v>
   <v>       0.50000000       0.25000000       0.25000000 </v>
   <v>       0.50000000       0.25000000       0.50000000 </v>
   <v>       0.50000000       0.25000000       0.75000000 </v>
   <v>       0.50000000       0.50000000       0.00000000 </v>
   <v>       0.50000000       0.50000000       0.25000000 </v>
   <v>       0.50000000       0.50000000       0.50000000 </v>
   <v>       0.50000000       0.50000000       0.75000000 </v>
   <v>       0.50000000       0.75000000       0.00000000 </v>
   <v>       0.50000000       0.75000000       0.25000000 </v>
   <v>       0.50000000       0.75000000       0.50000000 </v>
   <v>       0.50000000       0.75000000       0.75000000 </v>
   <v>       0.75000000       0.00000000       0.00000000 </v>
   <v>       0.75000000       0.00000000       0.25000000 </v>
   <v>       0.75000000       0.00000000       0.50000000 </v>
   <v>       0.75000000       0.00000000       0.75000000 </v>
   <v>       0.75000000       0.25000000       0.00000000 </v>
   <v>       0.75000000       0.25000000       0.25000000 </v>
   <v>       0.75000000       0.25000000       0.50000000 </v>
   <v>       0.75000000       0.25000000       0.75000000 </v>
   <v>       0.75000000       0.50000000       0.00000000 </v>
   <v>       0.75000000       0.50000000       0.25000000 </v>
   <v>       0.75000000       0.50000000       0.50000000 </v>
   <v>       0.75000000       0.50000000       0.75000000 </v>
   <v>       0.75000000       0.75000000       0.00000000 </v>
   <v>       0.75000000       0.75000000       0.25000000 </v>
   <v>       0.75000000       0.75000000       0.50000000 </v>
   <v>       0.75000000       0.75000000       0.75000000 </v>
  </varray>
 </structure>
 <calculation>
  <scstep>
   <time name="dav">  479.53  479.17</time>
   <time name="total">  482.25  481.89</time>
   <energy>
    <i name="alphaZ">   9010.57505126 </i>
    <i name="ewald">-148962.18054686 </i>
    <i name="hartreedc"> -64548.20625185 </i>
    <i name="XCdc">   5698.57200584 </i>
    <i name="pawpsdc"> 172361.15642774 </i>
    <i name="pawaedc">-181272.45834873 </i>
    <i name="eentropy">     -0.00595168 </i>
    <i name="bandstr">  -2683.62611675 </i>
    <i name="atom"> 224013.29143063 </i>
    <i name="e_fr_energy">  13617.11769960 </i>
    <i name="e_wo_entrp">  13617.12365128 </i>
    <i name="e_0_energy">  13617.11968350 </i>
   </energy>
  </scstep>
  <scstep>
   <time name="dav">  430.11  429.77</time>
   <time name="total">  430.12  429.78</time>
   <energy>
    <i name="e_fr_energy">    739.97158473 </i>
    <i name="e_wo_entrp">    739.96834789 </i>
    <i name="e_0_energy">    739.97050578 </i>
   </energy>
  </scstep>
  <scstep>
   <time name="dav">  441.00  440.65</time>
   <time name="total">  441.01  440.67</time>
   <energy>
    <i name="e_fr_energy">   -369.58971235 </i>
    <i name="e_wo_entrp">   -369.77953637 </i>
    <i name="e_0_energy">   -369.65298702 </i>
   </energy>
  </scstep>
  <scstep>
   <time name="dav">  453.45  453.09</time>
   <time name="total">  453.47  453.11</time>
   <energy>
    <i name="e_fr_energy">   -427.47842245 </i>
    <i name="e_wo_entrp">   -427.66033847 </i>
    <i name="e_0_energy">   -427.53906113 </i>
   </energy>
  </scstep>
  <scstep>
   <time name="dav">  449.02  448.67</time>
   <time name="total">  472.34  471.97</time>
   <energy>
    <i name="e_fr_energy">   -428.33452036 </i>
    <i name="e_wo_entrp">   -428.51647258 </i>
    <i name="e_0_energy">   -428.39517110 </i>
   </energy>
  </scstep>
  <scstep>
   <time name="dav">  441.42  441.07</time>
   <time name="total">  462.88  462.51</time>
   <energy>
    <i name="e_fr_energy">   -400.13520958 </i>
    <i name="e_wo_entrp">   -399.68269288 </i>
    <i name="e_0_energy">   -399.98437068 </i>
   </energy>
  </scstep>
  <scstep>
   <time name="dav">  439.11  438.76</time>
   <time name="total">  460.15  459.78</time>
   <energy>
    <i name="e_fr_energy">   -365.28792018 </i>
    <i name="e_wo_entrp">   -365.25310575 </i>
    <i name="e_0_energy">   -365.27631537 </i>
   </energy>
  </scstep>
  <scstep>
   <time name="dav">  441.39  441.04</time>
   <time name="total">  462.84  462.48</time>
   <energy>
    <i name="e_fr_energy">   -365.43713168 </i>
    <i name="e_wo_entrp">   -365.41465391 </i>
    <i name="e_0_energy">   -365.42963909 </i>
   </energy>
  </scstep>
  <scstep>
   <time name="dav">  446.61  446.26</time>
   <time name="total">  468.09  467.72</time>
   <energy>
    <i name="e_fr_energy">   -365.30814363 </i>
    <i name="e_wo_entrp">   -365.27756695 </i>
    <i name="e_0_energy">   -365.29795140 </i>
   </energy>
  </scstep>
  <scstep>
   <time name="dav">  468.79  468.42</time>
   <time name="total">  490.58  490.19</time>
   <energy>
    <i name="e_fr_energy">   -365.31401750 </i>
    <i name="e_wo_entrp">   -365.28388443 </i>
    <i name="e_0_energy">   -365.30397314 </i>
   </energy>
  </scstep>
  <scstep>
   <time name="dav">  442.67  442.32</time>
   <time name="total">  464.85  464.48</time>
   <energy>
    <i name="e_fr_energy">   -365.31841781 </i>
    <i name="e_wo_entrp">   -365.28918496 </i>
    <i name="e_0_energy">   -365.30867353 </i>
   </energy>
  </scstep>
  <scstep>
   <time name="dav">  439.58  439.23</time>
   <time name="total">  461.00  460.63</time>
   <energy>
    <i name="e_fr_energy">   -365.31839993 </i>
    <i name="e_wo_entrp">   -365.28779219 </i>
    <i name="e_0_energy">   -365.30819735 </i>
   </energy>
  </scstep>
  <scstep>
   <time name="dav">  417.14  416.81</time>
   <time name="total">  438.57  438.22</time>
   <energy>
    <i name="e_fr_energy">   -365.31839736 </i>
    <i name="e_wo_entrp">   -365.28764993 </i>
    <i name="e_0_energy">   -365.30814821 </i>
   </energy>
  </scstep>
  <scstep>
   <time name="dav">  359.88  359.59</time>
   <time name="total">  380.89  380.59</time>
   <energy>
    <i name="e_fr_energy">   -365.31837615 </i>
    <i name="e_wo_entrp">   -365.28768543 </i>
    <i name="e_0_energy">   -365.30814591 </i>
   </energy>
  </scstep>
  <scstep>
   <time name="dav">  269.38  269.17</time>
   <time name="total">  290.23  290.00</time>
   <energy>
    <i name="e_fr_energy">   -365.31836800 </i>
    <i name="e_wo_entrp">   -365.28772993 </i>
    <i name="e_0_energy">   -365.30815531 </i>
   </energy>
  </scstep>
  <scstep>
   <time name="dav">  259.24  259.03</time>
   <time name="total">  261.98  261.78</time>
   <energy>
    <i name="alphaZ">   9010.57505126 </i>
    <i name="ewald">-148962.18054686 </i>
    <i name="hartreedc"> -62222.38950742 </i>
    <i name="XCdc">   5612.11439313 </i>
    <i name="pawpsdc"> 171139.85788830 </i>
    <i name="pawaedc">-180173.95715384 </i>
    <i name="eentropy">     -0.03063370 </i>
    <i name="bandstr"> -18782.59928967 </i>
    <i name="atom"> 224013.29143063 </i>
    <i name="e_fr_energy">   -365.31836817 </i>
    <i name="e_wo_entrp">   -365.28773447 </i>
    <i name="e_0_energy">   -365.30815694 </i>
   </energy>
  </scstep>
  <structure>
   <crystal>
    <varray name="basis" >
     <v>       0.00000000       7.26150000       7.26150000 </v>
     <v>       7.26150000       0.00000000       7.26150000 </v>
     <v>       7.26150000       7.26150000       0.00000000 </v>
    </varray>
    <i name="volume">    765.78881842 </i>
    <varray name="rec_basis" >
     <v>      -0.06885630       0.06885630       0.06885630 </v>
     <v>       0.06885630      -0.06885630       0.06885630 </v>
     <v>       0.06885630       0.06885630      -0.06885630 </v>
    </varray>
   </crystal>
   <varray name="positions" >
    <v>       0.00000000       0.00000000       0.00000000 </v>
    <v>       0.00000000       0.00000000       0.25000000 </v>
    <v>       0.00000000       0.00000000       0.50000000 </v>
    <v>       0.00000000       0.00000000       0.75000000 </v>
    <v>       0.00000000       0.25000000       0.00000000 </v>
    <v>       0.00000000       0.25000000       0.25000000 </v>
    <v>       0.00000000       0.25000000       0.50000000 </v>
    <v>       0.00000000       0.25000000       0.75000000 </v>
    <v>       0.00000000       0.50000000       0.00000000 </v>
    <v>       0.00000000       0.50000000       0.25000000 </v>
    <v>       0.00000000       0.50000000       0.50000000 </v>
    <v>       0.00000000       0.50000000       0.75000000 </v>
    <v>       0.00000000       0.75000000       0.00000000 </v>
    <v>       0.00000000       0.75000000       0.25000000 </v>
    <v>       0.00000000       0.75000000       0.50000000 </v>
    <v>       0.00000000       0.75000000       0.75000000 </v>
    <v>       0.25000000       0.00000000       0.00000000 </v>
    <v>       0.25000000       0.00000000       0.25000000 </v>
    <v>       0.25000000       0.00000000       0.50000000 </v>
    <v>       0.25000000       0.00000000       0.75000000 </v>
    <v>       0.25000000       0.25000000       0.00000000 </v>
    <v>       0.25000000       0.25000000       0.25000000 </v>
    <v>       0.25000000       0.25000000       0.50000000 </v>
    <v>       0.25000000       0.25000000       0.75000000 </v>
    <v>       0.25000000       0.50000000       0.00000000 </v>
    <v>       0.25000000       0.50000000       0.25000000 </v>
    <v>       0.25000000       0.50000000       0.50000000 </v>
    <v>       0.25000000       0.50000000       0.75000000 </v>
    <v>       0.25000000       0.75000000       0.00000000 </v>
    <v>       0.25000000       0.75000000       0.25000000 </v>
    <v>       0.25000000       0.75000000       0.50000000 </v>
    <v>       0.25000000       0.75000000       0.75000000 </v>
    <v>       0.50000000       0.00000000       0.00000000 </v>
    <v>       0.50000000       0.00000000       0.25000000 </v>
    <v>       0.50000000       0.00000000       0.50000000 </v>
    <v>       0.50000000       0.00000000       0.75000000 </v>
    <v>       0.50000000       0.25000000       0.00000000 </v>
    <v>       0.50000000       0.25000000       0.25000000 </v>
    <v>       0.50000000       0.25000000       0.50000000 </v>
    <v>       0.50000000       0.25000000       0.75000000 </v>
    <v>       0.50000000       0.50000000       0.00000000 </v>
    <v>       0.50000000       0.50000000       0.25000000 </v>
    <v>       0.50000000       0.50000000       0.50000000 </v>
    <v>       0.50000000       0.50000000       0.75000000 </v>
    <v>       0.50000000       0.75000000       0.00000000 </v>
    <v>       0.50000000       0.75000000       0.25000000 </v>
    <v>       0.50000000       0.75000000       0.50000000 </v>
    <v>       0.50000000       0.75000000       0.75000000 </v>
    <v>       0.75000000       0.00000000       0.00000000 </v>
    <v>       0.75000000       0.00000000       0.25000000 </v>
    <v>       0.75000000       0.00000000       0.50000000 </v>
    <v>       0.75000000       0.00000000       0.75000000 </v>
    <v>       0.75000000       0.25000000       0.00000000 </v>
    <v>       0.75000000       0.25000000       0.25000000 </v>
    <v>       0.75000000       0.25000000       0.50000000 </v>
    <v>       0.75000000       0.25000000       0.75000000 </v>
    <v>       0.75000000       0.50000000       0.00000000 </v>
    <v>       0.75000000       0.50000000       0.25000000 </v>
    <v>       0.75000000       0.50000000       0.50000000 </v>
    <v>       0.75000000       0.50000000       0.75000000 </v>
    <v>       0.75000000       0.75000000       0.00000000 </v>
    <v>       0.75000000       0.75000000       0.25000000 </v>
    <v>       0.75000000       0.75000000       0.50000000 </v>
    <v>       0.75000000       0.75000000       0.75000000 </v>
   </varray>
  </structure>
  <varray name="forces" >
   <v>       0.00000000      -0.00000000      -0.00000000 </v>
   <v>      -0.00000000       0.00000000      -0.00000000 </v>
   <v>       0.00000000       0.00000000      -0.00000000 </v>
   <v>       0.00000000       0.00000000      -0.00000000 </v>
   <v>       0.00000000       0.00000000       0.00000000 </v>
   <v>       0.00000000      -0.00000000      -0.00000000 </v>
   <v>       0.00000000       0.00000000       0.00000000 </v>
   <v>      -0.00000000      -0.00000000      -0.00000000 </v>
   <v>       0.00000000       0.00000000       0.00000000 </v>
   <v>       0.00000000      -0.00000000      -0.00000000 </v>
   <v>       0.00000000       0.00000000       0.00000000 </v>
   <v>       0.00000000       0.00000000      -0.00000000 </v>
   <v>       0.00000000      -0.00000000      -0.00000000 </v>
   <v>       0.00000000      -0.00000000       0.00000000 </v>
   <v>       0.00000000      -0.00000000       0.00000000 </v>
   <v>       0.00000000       0.00000000      -0.00000000 </v>
   <v>       0.00000000       0.00000000       0.00000000 </v>
   <v>      -0.00000000       0.00000000      -0.00000000 </v>
   <v>      -0.00000000      -0.00000000       0.00000000 </v>
   <v>       0.00000000      -0.00000000      -0.00000000 </v>
   <v>      -0.00000000      -0.00000000       0.00000000 </v>
   <v>       0.00000000      -0.00000000       0.00000000 </v>
   <v>       0.00000000      -0.00000000       0.00000000 </v>
   <v>      -0.00000000       0.00000000      -0.00000000 </v>
   <v>       0.00000000      -0.00000000       0.00000000 </v>
   <v>       0.00000000      -0.00000000       0.00000000 </v>
   <v>      -0.00000000       0.00000000      -0.00000000 </v>
   <v>      -0.00000000       0.00000000      -0.00000000 </v>
   <v>      -0.00000000       0.00000000       0.00000000 </v>
   <v>       0.00000000      -0.00000000       0.00000000 </v>
   <v>       0.00000000      -0.00000000       0.00000000 </v>
   <v>      -0.00000000      -0.00000000      -0.00000000 </v>
   <v>       0.00000000      -0.00000000       0.00000000 </v>
   <v>      -0.00000000       0.00000000      -0.00000000 </v>
   <v>      -0.00000000       0.00000000       0.00000000 </v>
   <v>       0.00000000       0.00000000       0.00000000 </v>
   <v>      -0.00000000      -0.00000000       0.00000000 </v>
   <v>       0.00000000      -0.00000000      -0.00000000 </v>
   <v>      -0.00000000       0.00000000      -0.00000000 </v>
   <v>      -0.00000000       0.00000000      -0.00000000 </v>
   <v>       0.00000000       0.00000000       0.00000000 </v>
   <v>       0.00000000       0.00000000       0.00000000 </v>
   <v>      -0.00000000       0.00000000      -0.00000000 </v>
   <v>       0.00000000      -0.00000000      -0.00000000 </v>
   <v>      -0.00000000       0.00000000      -0.00000000 </v>
   <v>      -0.00000000      -0.00000000      -0.00000000 </v>
   <v>      -0.00000000      -0.00000000       0.00000000 </v>
   <v>      -0.00000000       0.00000000       0.00000000 </v>
   <v>       0.00000000      -0.00000000       0.00000000 </v>
   <v>      -0.00000000       0.00000000       0.00000000 </v>
   <v>      -0.00000000      -0.00000000      -0.00000000 </v>
   <v>       0.00000000       0.00000000       0.00000000 </v>
   <v>      -0.00000000      -0.00000000       0.00000000 </v>
   <v>      -0.00000000      -0.00000000       0.00000000 </v>
   <v>      -0.00000000       0.00000000       0.00000000 </v>
   <v>      -0.00000000      -0.00000000      -0.00000000 </v>
   <v>       0.00000000       0.00000000       0.00000000 </v>
   <v>      -0.00000000      -0.00000000      -0.00000000 </v>
   <v>      -0.00000000       0.00000000       0.00000000 </v>
   <v>       0.00000000       0.00000000      -0.00000000 </v>
   <v>       0.00000000      -0.00000000       0.00000000 </v>
   <v>       0.00000000       0.00000000       0.00000000 </v>
   <v>      -0.00000000      -0.00000000      -0.00000000 </v>
   <v>      -0.00000000      -0.00000000      -0.00000000 </v>
  </varray>
  <varray name="stress" >
   <v>    -277.87756593      -0.00000000       0.00000000 </v>
   <v>       0.00000000    -277.87756593      -0.00000000 </v>
   <v>      -0.00000000       0.00000000    -277.87756593 </v>
  </varray>
  <energy>
   <i name="e_fr_energy">   -365.31836817 </i>
   <i name="e_wo_entrp">   -365.30815694 </i>
   <i name="e_0_energy">     -0.03063370 </i>
  </energy>
  <kpoints>
   <generation param="Gamma">
    <v type="int" name="divisions">       3        3        3 </v>
    <v name="usershift">      0.00000000       0.00000000       0.00000000 </v>
    <v name="genvec1">      0.33333333       0.00000000       0.00000000 </v>
    <v name="genvec2">      0.00000000       0.33333333       0.00000000 </v>
    <v name="genvec3">      0.00000000       0.00000000       0.33333333 </v>
    <v name="shift">      0.00000000       0.00000000       0.00000000 </v>
   </generation>
   <varray name="kpointlist" >
    <v>       0.00000000       0.00000000       0.00000000 </v>
    <v>       0.33333333       0.00000000       0.00000000 </v>
    <v>       0.33333333       0.33333333       0.00000000 </v>
    <v>      -0.33333333       0.33333333       0.00000000 </v>
    <v>       0.00000000       0.33333333       0.33333333 </v>
    <v>      -0.33333333       0.33333333       0.33333333 </v>
   </varray>
   <varray name="weights" >
    <v>       0.03703704 </v>
    <v>       0.29629630 </v>
    <v>       0.14814815 </v>
    <v>       0.29629630 </v>
    <v>       0.07407407 </v>
    <v>       0.14814815 </v>
   </varray>
  </kpoints>
  <time name="totalsc"> 7536.57 7531.11</time>
 </calculation>
 <calculation>
  <scstep>
   <time name="dav">  765.17  764.54</time>
   <time name="total">  794.54  793.89</time>
   <energy>
    <i name="alphaZ">   9010.57505126 </i>
    <i name="ewald">-148961.60893477 </i>
    <i name="hartreedc"> -62222.97383632 </i>
    <i name="XCdc">   5612.11816373 </i>
    <i name="pawpsdc"> 171139.71006615 </i>
    <i name="pawaedc">-180173.81697365 </i>
    <i name="eentropy">     -0.03053303 </i>
    <i name="bandstr"> -18782.25493276 </i>
    <i name="atom"> 224013.29143063 </i>
    <i name="e_fr_energy">   -364.99049876 </i>
    <i name="e_wo_entrp">   -364.95996573 </i>
    <i name="e_0_energy">   -364.98032108 </i>
   </energy>
  </scstep>
  <scstep>
   <time name="dav">  638.73  638.21</time>
   <time name="total">  671.28  670.73</time>
   <energy>
    <i name="e_fr_energy">   -365.33416432 </i>
    <i name="e_wo_entrp">   -365.30365460 </i>
    <i name="e_0_energy">   -365.32399441 </i>
   </energy>
  </scstep>
  <scstep>
   <time name="dav">  744.42  743.80</time>
   <time name="total">  777.56  776.92</time>
   <energy>
    <i name="e_fr_energy">   -365.31963806 </i>
    <i name="e_wo_entrp">   -365.28863915 </i>
    <i name="e_0_energy">   -365.30930509 </i>
   </energy>
  </scstep>
  <scstep>
   <time name="dav">  730.18  729.58</time>
   <time name="total">  762.51  761.88</time>
   <energy>
    <i name="e_fr_energy">   -365.32720511 </i>
    <i name="e_wo_entrp">   -365.29643517 </i>
    <i name="e_0_energy">   -365.31694846 </i>
   </energy>
  </scstep>
  <scstep>
   <time name="dav">  668.73  668.18</time>
   <time name="total">  702.84  702.26</time>
   <energy>
    <i name="e_fr_energy">   -365.31619762 </i>
    <i name="e_wo_entrp">   -365.28550340 </i>
    <i name="e_0_energy">   -365.30596622 </i>
   </energy>
  </scstep>
  <scstep>
   <time name="dav">  756.41  755.79</time>
   <time name="total">  790.56  789.91</time>
   <energy>
    <i name="e_fr_energy">   -365.31596356 </i>
    <i name="e_wo_entrp">   -365.28528252 </i>
    <i name="e_0_energy">   -365.30573655 </i>
   </energy>
  </scstep>
  <scstep>
   <time name="dav">  688.03  687.46</time>
   <time name="total">  720.81  720.22</time>
   <energy>
    <i name="e_fr_energy">   -365.31583283 </i>
    <i name="e_wo_entrp">   -365.28516259 </i>
    <i name="e_0_energy">   -365.30560942 </i>
   </energy>
  </scstep>
  <scstep>
   <time name="dav">  679.33  678.77</time>
   <time name="total">  713.24  712.65</time>
   <energy>
    <i name="e_fr_energy">   -365.31567106 </i>
    <i name="e_wo_entrp">   -365.28501325 </i>
    <i name="e_0_energy">   -365.30545179 </i>
   </energy>
  </scstep>
  <scstep>
   <time name="dav">  684.28  683.71</time>
   <time name="total">  717.46  716.87</time>
   <energy>
    <i name="e_fr_energy">   -365.31577258 </i>
    <i name="e_wo_entrp">   -365.28512020 </i>
    <i name="e_0_energy">   -365.30555512 </i>
   </energy>
  </scstep>
  <scstep>
   <time name="dav">  753.52  752.90</time>
   <time name="total">  785.01  784.37</time>
   <energy>
    <i name="e_fr_energy">   -365.31536646 </i>
    <i name="e_wo_entrp">   -365.28474286 </i>
    <i name="e_0_energy">   -365.30515860 </i>
   </energy>
  </scstep>
  <scstep>
   <time name="dav">  768.42  767.79</time>
   <time name="total">  800.19  799.53</time>
   <energy>
    <i name="e_fr_energy">   -365.31530344 </i>
    <i name="e_wo_entrp">   -365.28467639 </i>
    <i name="e_0_energy">   -365.30509442 </i>
   </energy>
  </scstep>
  <scstep>
   <time name="dav">  758.52  757.90</time>
   <time name="total">  786.86  786.21</time>
   <energy>
    <i name="e_fr_energy">   -365.31532066 </i>
    <i name="e_wo_entrp">   -365.28469456 </i>
    <i name="e_0_energy">   -365.30511196 </i>
   </energy>
  </scstep>
  <scstep>
   <time name="dav">  653.35  652.81</time>
   <time name="total">  681.67  681.10</time>
   <energy>
    <i name="e_fr_energy">   -365.31529992 </i>
    <i name="e_wo_entrp">   -365.28467314 </i>
    <i name="e_0_energy">   -365.30509099 </i>
   </energy>
  </scstep>
  <scstep>
   <time name="dav">  700.56  699.98</time>
   <time name="total">  730.39  729.79</time>
   <energy>
    <i name="e_fr_energy">   -365.31530517 </i>
    <i name="e_wo_entrp">   -365.28467713 </i>
    <i name="e_0_energy">   -365.30509582 </i>
   </energy>
  </scstep>
  <scstep>
   <time name="dav">  574.25  573.78</time>
   <time name="total">  603.33  602.84</time>
   <energy>
    <i name="e_fr_energy">   -365.31530012 </i>
    <i name="e_wo_entrp">   -365.28466756 </i>
    <i name="e_0_energy">   -365.30508927 </i>
   </energy>
  </scstep>
  <scstep>
   <time name="dav">  402.67  402.34</time>
   <time name="total">  405.40  405.07</time>
   <energy>
    <i name="alphaZ">   9010.57505126 </i>
    <i name="ewald">-148961.60893477 </i>
    <i name="hartreedc"> -62222.92869490 </i>
    <i name="XCdc">   5612.11554480 </i>
    <i name="pawpsdc"> 171139.66662794 </i>
    <i name="pawaedc">-180173.77663282 </i>
    <i name="eentropy">     -0.03063159 </i>
    <i name="bandstr"> -18782.61906083 </i>
    <i name="atom"> 224013.29143063 </i>
    <i name="e_fr_energy">   -365.31530027 </i>
    <i name="e_wo_entrp">   -365.28466868 </i>
    <i name="e_0_energy">   -365.30508974 </i>
   </energy>
  </scstep>
  <structure>
   <crystal>
    <varray name="basis" >
     <v>       0.00000000       7.26150000       7.26150000 </v>
     <v>       7.26150000       0.00000000       7.26150000 </v>
     <v>       7.26150000       7.26150000       0.00000000 </v>
    </varray>
    <i name="volume">    765.78881842 </i>
    <varray name="rec_basis" >
     <v>      -0.06885630       0.06885630       0.06885630 </v>
     <v>       0.06885630      -0.06885630       0.06885630 </v>
     <v>       0.06885630       0.06885630      -0.06885630 </v>
    </varray>
   </crystal>
   <varray name="positions" >
    <v>      -0.00206569       0.00206569       0.00206569 </v>
    <v>       0.00000000       0.00000000       0.25000000 </v>
    <v>       0.00000000       0.00000000       0.50000000 </v>
    <v>       0.00000000       0.00000000       0.75000000 </v>
    <v>       0.00000000       0.25000000       0.00000000 </v>
    <v>       0.00000000       0.25000000       0.25000000 </v>
    <v>       0.00000000       0.25000000       0.50000000 </v>
    <v>       0.00000000       0.25000000       0.75000000 </v>
    <v>       0.00000000       0.50000000       0.00000000 </v>
    <v>       0.00000000       0.50000000       0.25000000 </v>
    <v>       0.00000000       0.50000000       0.50000000 </v>
    <v>       0.00000000       0.50000000       0.75000000 </v>
    <v>       0.00000000       0.75000000       0.00000000 </v>
    <v>       0.00000000       0.75000000       0.25000000 </v>
    <v>       0.00000000       0.75000000       0.50000000 </v>
    <v>       0.00000000       0.75000000       0.75000000 </v>
    <v>       0.25000000       0.00000000       0.00000000 </v>
    <v>       0.25000000       0.00000000       0.25000000 </v>
    <v>       0.25000000       0.00000000       0.50000000 </v>
    <v>       0.25000000       0.00000000       0.75000000 </v>
    <v>       0.25000000       0.25000000       0.00000000 </v>
    <v>       0.25000000       0.25000000       0.25000000 </v>
    <v>       0.25000000       0.25000000       0.50000000 </v>
    <v>       0.25000000       0.25000000       0.75000000 </v>
    <v>       0.25000000       0.50000000       0.00000000 </v>
    <v>       0.25000000       0.50000000       0.25000000 </v>
    <v>       0.25000000       0.50000000       0.50000000 </v>
    <v>       0.25000000       0.50000000       0.75000000 </v>
    <v>       0.25000000       0.75000000       0.00000000 </v>
    <v>       0.25000000       0.75000000       0.25000000 </v>
    <v>       0.25000000       0.75000000       0.50000000 </v>
    <v>       0.25000000       0.75000000       0.75000000 </v>
    <v>       0.50000000       0.00000000       0.00000000 </v>
    <v>       0.50000000       0.00000000       0.25000000 </v>
    <v>       0.50000000       0.00000000       0.50000000 </v>
    <v>       0.50000000       0.00000000       0.75000000 </v>
    <v>       0.50000000       0.25000000       0.00000000 </v>
    <v>       0.50000000       0.25000000       0.25000000 </v>
    <v>       0.50000000       0.25000000       0.50000000 </v>
    <v>       0.50000000       0.25000000       0.75000000 </v>
    <v>       0.50000000       0.50000000       0.00000000 </v>
    <v>       0.50000000       0.50000000       0.25000000 </v>
    <v>       0.50000000       0.50000000       0.50000000 </v>
    <v>       0.50000000       0.50000000       0.75000000 </v>
    <v>       0.50000000       0.75000000       0.00000000 </v>
    <v>       0.50000000       0.75000000       0.25000000 </v>
    <v>       0.50000000       0.75000000       0.50000000 </v>
    <v>       0.50000000       0.75000000       0.75000000 </v>
    <v>       0.75000000       0.00000000       0.00000000 </v>
    <v>       0.75000000       0.00000000       0.25000000 </v>
    <v>       0.75000000       0.00000000       0.50000000 </v>
    <v>       0.75000000       0.00000000       0.75000000 </v>
    <v>       0.75000000       0.25000000       0.00000000 </v>
    <v>       0.75000000       0.25000000       0.25000000 </v>
    <v>       0.75000000       0.25000000       0.50000000 </v>
    <v>       0.75000000       0.25000000       0.75000000 </v>
    <v>       0.75000000       0.50000000       0.00000000 </v>
    <v>       0.75000000       0.50000000       0.25000000 </v>
    <v>       0.75000000       0.50000000       0.50000000 </v>
    <v>       0.75000000       0.50000000       0.75000000 </v>
    <v>       0.75000000       0.75000000       0.00000000 </v>
    <v>       0.75000000       0.75000000       0.25000000 </v>
    <v>       0.75000000       0.75000000       0.50000000 </v>
    <v>       0.75000000       0.75000000       0.75000000 </v>
   </varray>
  </structure>
  <varray name="forces" >
   <v>      -0.19927137       0.00000000       0.00000000 </v>
   <v>       0.02176270       0.02366240       0.00000000 </v>
   <v>       0.00059931       0.00029539       0.00000000 </v>
   <v>       0.01940797       0.02067271       0.00000000 </v>
   <v>       0.02176270       0.00000000       0.02366240 </v>
   <v>       0.00219558       0.00129045       0.00129045 </v>
   <v>       0.00057870       0.00121299      -0.00055476 </v>
   <v>       0.00054313       0.00020522      -0.00020522 </v>
   <v>       0.00059931       0.00000000       0.00029539 </v>
   <v>       0.00057870      -0.00055476       0.00121299 </v>
   <v>       0.00006143       0.00000000       0.00000000 </v>
   <v>       0.00063793      -0.00061073       0.00129185 </v>
   <v>       0.01940797       0.00000000       0.02067271 </v>
   <v>       0.00054313      -0.00020522       0.00020522 </v>
   <v>       0.00063793       0.00129185      -0.00061073 </v>
   <v>       0.00210009       0.00120126       0.00120126 </v>
   <v>       0.00054313      -0.00020522      -0.00020522 </v>
   <v>       0.00063793       0.00129185       0.00061073 </v>
   <v>       0.00210009       0.00120126      -0.00120126 </v>
   <v>       0.01940797       0.00000000      -0.02067271 </v>
   <v>       0.00063793       0.00061073       0.00129185 </v>
   <v>       0.00068663      -0.00000000      -0.00000000 </v>
   <v>       0.00057870       0.00055476      -0.00121299 </v>
   <v>      -0.00119449       0.00000000       0.00004435 </v>
   <v>       0.00210009      -0.00120126       0.00120126 </v>
   <v>       0.00057870      -0.00121299       0.00055476 </v>
   <v>      -0.00040721      -0.00002125      -0.00002125 </v>
   <v>       0.00023866       0.00000000      -0.00015441 </v>
   <v>       0.01940797      -0.02067271       0.00000000 </v>
   <v>      -0.00119449       0.00004435       0.00000000 </v>
   <v>       0.00023866      -0.00015441       0.00000000 </v>
   <v>       0.00360984       0.00000000       0.00000000 </v>
   <v>       0.00006143       0.00000000       0.00000000 </v>
   <v>       0.00063793      -0.00061073      -0.00129185 </v>
   <v>       0.00059931       0.00000000      -0.00029539 </v>
   <v>       0.00057870      -0.00055476      -0.00121299 </v>
   <v>       0.00063793      -0.00129185      -0.00061073 </v>
   <v>       0.00219558      -0.00129045      -0.00129045 </v>
   <v>       0.00017251       0.00000000       0.00009115 </v>
   <v>      -0.00040721       0.00002125      -0.00002125 </v>
   <v>       0.00059931      -0.00029539       0.00000000 </v>
   <v>       0.00017251       0.00009115       0.00000000 </v>
   <v>      -0.00089555       0.00000000       0.00000000 </v>
   <v>       0.00023866       0.00015441       0.00000000 </v>
   <v>       0.00057870      -0.00121299      -0.00055476 </v>
   <v>      -0.00040721      -0.00002125       0.00002125 </v>
   <v>       0.00023866       0.00000000       0.00015441 </v>
   <v>       0.00210009      -0.00120126      -0.00120126 </v>
   <v>       0.00054313       0.00020522       0.00020522 </v>
   <v>       0.02176270       0.00000000      -0.02366240 </v>
   <v>       0.00219558       0.00129045      -0.00129045 </v>
   <v>       0.00057870       0.00121299       0.00055476 </v>
   <v>       0.02176270      -0.02366240       0.00000000 </v>
   <v>       0.00365493       0.00000000       0.00000000 </v>
   <v>       0.00017251      -0.00009115       0.00000000 </v>
   <v>      -0.00119449      -0.00004435       0.00000000 </v>
   <v>       0.00219558      -0.00129045       0.00129045 </v>
   <v>       0.00017251       0.00000000      -0.00009115 </v>
   <v>      -0.00040721       0.00002125       0.00002125 </v>
   <v>       0.00063793      -0.00129185       0.00061073 </v>
   <v>       0.00057870       0.00055476       0.00121299 </v>
   <v>      -0.00119449       0.00000000      -0.00004435 </v>
   <v>       0.00063793       0.00061073      -0.00129185 </v>
   <v>       0.00068663       0.00000000       0.00000000 </v>
  </varray>
  <varray name="stress" >
   <v>    -277.85594062       0.00000000       0.00000000 </v>
   <v>       0.00000000    -277.85656706       0.00000000 </v>
   <v>      -0.00000000       0.00000000    -277.85656706 </v>
  </varray>
  <energy>
   <i name="e_fr_energy">   -365.31530027 </i>
   <i name="e_wo_entrp">   -365.30508974 </i>
   <i name="e_0_energy">     -0.03063159 </i>
  </energy>
  <kpoints>
   <generation param="Gamma">
    <v type="int" name="divisions">       3        3        3 </v>
    <v name="usershift">      0.00000000       0.00000000       0.00000000 </v>
    <v name="genvec1">      0.33333333       0.00000000       0.00000000 </v>
    <v name="genvec2">      0.00000000       0.33333333       0.00000000 </v>
    <v name="genvec3">      0.00000000       0.00000000       0.33333333 </v>
    <v name="shift">      0.00000000       0.00000000       0.00000000 </v>
   </generation>
   <varray name="kpointlist" >
    <v>       0.00000000       0.00000000       0.00000000 </v>
    <v>       0.33333333       0.00000000       0.00000000 </v>
    <v>       0.33333333       0.33333333       0.00000000 </v>
    <v>      -0.33333333       0.33333333       0.00000000 </v>
    <v>       0.00000000       0.33333333       0.33333333 </v>
    <v>      -0.33333333       0.33333333       0.33333333 </v>
   </varray>
   <varray name="weights" >
    <v>       0.03703704 </v>
    <v>       0.29629630 </v>
    <v>       0.14814815 </v>
    <v>       0.29629630 </v>
    <v>       0.07407407 </v>
    <v>       0.14814815 </v>
   </varray>
  </kpoints>
  <time name="totalsc">12330.2012320.06</time>
 </calculation>
 <calculation>
  <scstep>
   <time name="dav">  789.96  789.31</time>
   <time name="total">  820.09  819.41</time>
   <energy>
    <i name="alphaZ">   9010.57505126 </i>
    <i name="ewald">-148962.03763717 </i>
    <i name="hartreedc"> -62222.53766529 </i>
    <i name="XCdc">   5612.11524119 </i>
    <i name="pawpsdc"> 171139.67925855 </i>
    <i name="pawaedc">-180173.79026229 </i>
    <i name="eentropy">     -0.03060035 </i>
    <i name="bandstr"> -18782.44332079 </i>
    <i name="atom"> 224013.29143063 </i>
    <i name="e_fr_energy">   -365.17850426 </i>
    <i name="e_wo_entrp">   -365.14790391 </i>
    <i name="e_0_energy">   -365.16830414 </i>
   </energy>
  </scstep>
  <scstep>
   <time name="dav">  640.16  639.63</time>
   <time name="total">  673.30  672.78</time>
   <energy>
    <i name="e_fr_energy">   -365.31873705 </i>
    <i name="e_wo_entrp">   -365.28800612 </i>
    <i name="e_0_energy">   -365.30849341 </i>
   </energy>
  </scstep>
  <scstep>
   <time name="dav">  751.13  750.51</time>
   <time name="total">  783.56  782.92</time>
   <energy>
    <i name="e_fr_energy">   -365.31772448 </i>
    <i name="e_wo_entrp">   -365.28699233 </i>
    <i name="e_0_energy">   -365.30748043 </i>
   </energy>
  </scstep>
  <scstep>
   <time name="dav">  730.03  729.43</time>
   <time name="total">  763.39  762.77</time>
   <energy>
    <i name="e_fr_energy">   -365.31922137 </i>
    <i name="e_wo_entrp">   -365.28852706 </i>
    <i name="e_0_energy">   -365.30898993 </i>
   </energy>
  </scstep>
  <scstep>
   <time name="dav">  674.47  673.92</time>
   <time name="total">  707.68  707.10</time>
   <energy>
    <i name="e_fr_energy">   -365.31771128 </i>
    <i name="e_wo_entrp">   -365.28706641 </i>
    <i name="e_0_energy">   -365.30749632 </i>
   </energy>
  </scstep>
  <scstep>
   <time name="dav">  740.50  739.89</time>
   <time name="total">  774.06  773.42</time>
   <energy>
    <i name="e_fr_energy">   -365.31767151 </i>
    <i name="e_wo_entrp">   -365.28703076 </i>
    <i name="e_0_energy">   -365.30745793 </i>
   </energy>
  </scstep>
  <scstep>
   <time name="dav">  681.65  681.09</time>
   <time name="total">  709.35  708.76</time>
   <energy>
    <i name="e_fr_energy">   -365.31766140 </i>
    <i name="e_wo_entrp">   -365.28702044 </i>
    <i name="e_0_energy">   -365.30744775 </i>
   </energy>
  </scstep>
  <scstep>
   <time name="dav">  668.42  667.87</time>
   <time name="total">  696.09  699.70</time>
   <energy>
    <i name="e_fr_energy">   -365.31763507 </i>
    <i name="e_wo_entrp">   -365.28699525 </i>
    <i name="e_0_energy">   -365.30742179 </i>
   </energy>
  </scstep>
  <scstep>
   <time name="dav">  672.60  672.05</time>
   <time name="total">  700.29  699.71</time>
   <energy>
    <i name="e_fr_energy">   -365.31768198 </i>
    <i name="e_wo_entrp">   -365.28704547 </i>
    <i name="e_0_energy">   -365.30746981 </i>
   </energy>
  </scstep>
  <scstep>
   <time name="dav">  703.18  702.60</time>
   <time name="total">  730.51  729.91</time>
   <energy>
    <i name="e_fr_energy">   -365.31761346 </i>
    <i name="e_wo_entrp">   -365.28697948 </i>
    <i name="e_0_energy">   -365.30740213 </i>
   </energy>
  </scstep>
  <scstep>
   <time name="dav">  754.13  753.51</time>
   <time name="total">  781.68  781.03</time>
   <energy>
    <i name="e_fr_energy">   -365.31760633 </i>
    <i name="e_wo_entrp">   -365.28697509 </i>
    <i name="e_0_energy">   -365.30739591 </i>
   </energy>
  </scstep>
  <scstep>
   <time name="dav">  628.54  628.02</time>
   <time name="total">  657.75  657.21</time>
   <energy>
    <i name="e_fr_energy">   -365.31760801 </i>
    <i name="e_wo_entrp">   -365.28697842 </i>
    <i name="e_0_energy">   -365.30739815 </i>
   </energy>
  </scstep>
  <scstep>
   <time name="dav">  509.15  508.73</time>
   <time name="total">  538.36  537.92</time>
   <energy>
    <i name="e_fr_energy">   -365.31760609 </i>
    <i name="e_wo_entrp">   -365.28697994 </i>
    <i name="e_0_energy">   -365.30739737 </i>
   </energy>
  </scstep>
  <scstep>
   <time name="dav">  389.03  388.71</time>
   <time name="total">  391.76  391.44</time>
   <energy>
    <i name="alphaZ">   9010.57505126 </i>
    <i name="ewald">-148962.03763717 </i>
    <i name="hartreedc"> -62222.52090741 </i>
    <i name="XCdc">   5612.11460126 </i>
    <i name="pawpsdc"> 171139.55230136 </i>
    <i name="pawaedc">-180173.66149554 </i>
    <i name="eentropy">     -0.03062779 </i>
    <i name="bandstr"> -18782.60032296 </i>
    <i name="atom"> 224013.29143063 </i>
    <i name="e_fr_energy">   -365.31760635 </i>
    <i name="e_wo_entrp">   -365.28697856 </i>
    <i name="e_0_energy">   -365.30739709 </i>
   </energy>
  </scstep>
  <structure>
   <crystal>
    <varray name="basis" >
     <v>       0.00000000       7.26150000       7.26150000 </v>
     <v>       7.26150000       0.00000000       7.26150000 </v>
     <v>       7.26150000       7.26150000       0.00000000 </v>
    </varray>
    <i name="volume">    765.78881842 </i>
    <varray name="rec_basis" >
     <v>      -0.06885630       0.06885630       0.06885630 </v>
     <v>       0.06885630      -0.06885630       0.06885630 </v>
     <v>       0.06885630       0.06885630      -0.06885630 </v>
    </varray>
   </crystal>
   <varray name="positions" >
    <v>      -0.00103284       0.00103284       0.00103284 </v>
    <v>       0.00000000       0.00000000       0.25000000 </v>
    <v>       0.00000000       0.00000000       0.50000000 </v>
    <v>       0.00000000       0.00000000       0.75000000 </v>
    <v>       0.00000000       0.25000000       0.00000000 </v>
    <v>       0.00000000       0.25000000       0.25000000 </v>
    <v>       0.00000000       0.25000000       0.50000000 </v>
    <v>       0.00000000       0.25000000       0.75000000 </v>
    <v>       0.00000000       0.50000000       0.00000000 </v>
    <v>       0.00000000       0.50000000       0.25000000 </v>
    <v>       0.00000000       0.50000000       0.50000000 </v>
    <v>       0.00000000       0.50000000       0.75000000 </v>
    <v>       0.00000000       0.75000000       0.00000000 </v>
    <v>       0.00000000       0.75000000       0.25000000 </v>
    <v>       0.00000000       0.75000000       0.50000000 </v>
    <v>       0.00000000       0.75000000       0.75000000 </v>
    <v>       0.25000000       0.00000000       0.00000000 </v>
    <v>       0.25000000       0.00000000       0.25000000 </v>
    <v>       0.25000000       0.00000000       0.50000000 </v>
    <v>       0.25000000       0.00000000       0.75000000 </v>
    <v>       0.25000000       0.25000000       0.00000000 </v>
    <v>       0.25000000       0.25000000       0.25000000 </v>
    <v>       0.25000000       0.25000000       0.50000000 </v>
    <v>       0.25000000       0.25000000       0.75000000 </v>
    <v>       0.25000000       0.50000000       0.00000000 </v>
    <v>       0.25000000       0.50000000       0.25000000 </v>
    <v>       0.25000000       0.50000000       0.50000000 </v>
    <v>       0.25000000       0.50000000       0.75000000 </v>
    <v>       0.25000000       0.75000000       0.00000000 </v>
    <v>       0.25000000       0.75000000       0.25000000 </v>
    <v>       0.25000000       0.75000000       0.50000000 </v>
    <v>       0.25000000       0.75000000       0.75000000 </v>
    <v>       0.50000000       0.00000000       0.00000000 </v>
    <v>       0.50000000       0.00000000       0.25000000 </v>
    <v>       0.50000000       0.00000000       0.50000000 </v>
    <v>       0.50000000       0.00000000       0.75000000 </v>
    <v>       0.50000000       0.25000000       0.00000000 </v>
    <v>       0.50000000       0.25000000       0.25000000 </v>
    <v>       0.50000000       0.25000000       0.50000000 </v>
    <v>       0.50000000       0.25000000       0.75000000 </v>
    <v>       0.50000000       0.50000000       0.00000000 </v>
    <v>       0.50000000       0.50000000       0.25000000 </v>
    <v>       0.50000000       0.50000000       0.50000000 </v>
    <v>       0.50000000       0.50000000       0.75000000 </v>
    <v>       0.50000000       0.75000000       0.00000000 </v>
    <v>       0.50000000       0.75000000       0.25000000 </v>
    <v>       0.50000000       0.75000000       0.50000000 </v>
    <v>       0.50000000       0.75000000       0.75000000 </v>
    <v>       0.75000000       0.00000000       0.00000000 </v>
    <v>       0.75000000       0.00000000       0.25000000 </v>
    <v>       0.75000000       0.00000000       0.50000000 </v>
    <v>       0.75000000       0.00000000       0.75000000 </v>
    <v>       0.75000000       0.25000000       0.00000000 </v>
    <v>       0.75000000       0.25000000       0.25000000 </v>
    <v>       0.75000000       0.25000000       0.50000000 </v>
    <v>       0.75000000       0.25000000       0.75000000 </v>
    <v>       0.75000000       0.50000000       0.00000000 </v>
    <v>       0.75000000       0.50000000       0.25000000 </v>
    <v>       0.75000000       0.50000000       0.50000000 </v>
    <v>       0.75000000       0.50000000       0.75000000 </v>
    <v>       0.75000000       0.75000000       0.00000000 </v>
    <v>       0.75000000       0.75000000       0.25000000 </v>
    <v>       0.75000000       0.75000000       0.50000000 </v>
    <v>       0.75000000       0.75000000       0.75000000 </v>
   </varray>
  </structure>
  <varray name="forces" >
   <v>      -0.10606774      -0.00000000       0.00000000 </v>
   <v>       0.01056256       0.01128657       0.00000000 </v>
   <v>       0.00034143       0.00026363       0.00000000 </v>
   <v>       0.01002811       0.01058964       0.00000000 </v>
   <v>       0.01056256      -0.00000000       0.01128657 </v>
   <v>       0.00116504       0.00070497       0.00070497 </v>
   <v>       0.00040669       0.00065005      -0.00030667 </v>
   <v>       0.00057446       0.00008239      -0.00008239 </v>
   <v>       0.00034143      -0.00000000       0.00026363 </v>
   <v>       0.00040669      -0.00030667       0.00065005 </v>
   <v>       0.00023158      -0.00000000       0.00000000 </v>
   <v>       0.00041791      -0.00033512       0.00072180 </v>
   <v>       0.01002811      -0.00000000       0.01058964 </v>
   <v>       0.00057446      -0.00008239       0.00008239 </v>
   <v>       0.00041791       0.00072180      -0.00033512 </v>
   <v>       0.00108212       0.00066483       0.00066483 </v>
   <v>       0.00057446      -0.00008239      -0.00008239 </v>
   <v>       0.00041791       0.00072180       0.00033512 </v>
   <v>       0.00108212       0.00066483      -0.00066483 </v>
   <v>       0.01002811      -0.00000000      -0.01058964 </v>
   <v>       0.00041791       0.00033512       0.00072180 </v>
   <v>       0.00029318      -0.00000000       0.00000000 </v>
   <v>       0.00040669       0.00030667      -0.00065005 </v>
   <v>      -0.00041258      -0.00000000       0.00004442 </v>
   <v>       0.00108212      -0.00066483       0.00066483 </v>
   <v>       0.00040669      -0.00065005       0.00030667 </v>
   <v>      -0.00001358      -0.00002219      -0.00002219 </v>
   <v>       0.00025346      -0.00000000      -0.00009989 </v>
   <v>       0.01002811      -0.01058964       0.00000000 </v>
   <v>      -0.00041258       0.00004442       0.00000000 </v>
   <v>       0.00025346      -0.00009989       0.00000000 </v>
   <v>       0.00173556      -0.00000000       0.00000000 </v>
   <v>       0.00023158      -0.00000000       0.00000000 </v>
   <v>       0.00041791      -0.00033512      -0.00072180 </v>
   <v>       0.00034143      -0.00000000      -0.00026363 </v>
   <v>       0.00040669      -0.00030667      -0.00065005 </v>
   <v>       0.00041791      -0.00072180      -0.00033512 </v>
   <v>       0.00116504      -0.00070497      -0.00070497 </v>
   <v>       0.00021747      -0.00000000       0.00005337 </v>
   <v>      -0.00001358       0.00002219      -0.00002219 </v>
   <v>       0.00034143      -0.00026363       0.00000000 </v>
   <v>       0.00021747       0.00005337       0.00000000 </v>
   <v>      -0.00031786      -0.00000000       0.00000000 </v>
   <v>       0.00025346       0.00009989       0.00000000 </v>
   <v>       0.00040669      -0.00065005      -0.00030667 </v>
   <v>      -0.00001358      -0.00002219       0.00002219 </v>
   <v>       0.00025346      -0.00000000       0.00009989 </v>
   <v>       0.00108212      -0.00066483      -0.00066483 </v>
   <v>       0.00057446       0.00008239       0.00008239 </v>
   <v>       0.01056256      -0.00000000      -0.01128657 </v>
   <v>       0.00116504       0.00070497      -0.00070497 </v>
   <v>       0.00040669       0.00065005       0.00030667 </v>
   <v>       0.01056256      -0.01128657       0.00000000 </v>
   <v>       0.00180973      -0.00000000       0.00000000 </v>
   <v>       0.00021747      -0.00005337       0.00000000 </v>
   <v>      -0.00041258      -0.00004442       0.00000000 </v>
   <v>       0.00116504      -0.00070497       0.00070497 </v>
   <v>       0.00021747      -0.00000000      -0.00005337 </v>
   <v>      -0.00001358       0.00002219       0.00002219 </v>
   <v>       0.00041791      -0.00072180       0.00033512 </v>
   <v>       0.00040669       0.00030667       0.00065005 </v>
   <v>      -0.00041258      -0.00000000      -0.00004442 </v>
   <v>       0.00041791       0.00033512      -0.00072180 </v>
   <v>       0.00029318      -0.00000000       0.00000000 </v>
  </varray>
  <varray name="stress" >
   <v>    -277.94271303      -0.00000000       0.00000000 </v>
   <v>       0.00000000    -277.93978570       0.00000000 </v>
   <v>      -0.00000000       0.00000000    -277.93978570 </v>
  </varray>
  <energy>
   <i name="e_fr_energy">   -365.31760635 </i>
   <i name="e_wo_entrp">   -365.30739709 </i>
   <i name="e_0_energy">     -0.03062779 </i>
  </energy>
  <kpoints>
   <generation param="Gamma">
    <v type="int" name="divisions">       3        3        3 </v>
    <v name="usershift">      0.00000000       0.00000000       0.00000000 </v>
    <v name="genvec1">      0.33333333       0.00000000       0.00000000 </v>
    <v name="genvec2">      0.00000000       0.33333333       0.00000000 </v>
    <v name="genvec3">      0.00000000       0.00000000       0.33333333 </v>
    <v name="shift">      0.00000000       0.00000000       0.00000000 </v>
   </generation>
   <varray name="kpointlist" >
    <v>       0.00000000       0.00000000       0.00000000 </v>
    <v>       0.33333333       0.00000000       0.00000000 </v>
    <v>       0.33333333       0.33333333       0.00000000 </v>
    <v>      -0.33333333       0.33333333       0.00000000 </v>
    <v>       0.00000000       0.33333333       0.33333333 </v>
    <v>      -0.33333333       0.33333333       0.33333333 </v>
   </varray>
   <varray name="weights" >
    <v>       0.03703704 </v>
    <v>       0.29629630 </v>
    <v>       0.14814815 </v>
    <v>       0.29629630 </v>
    <v>       0.07407407 </v>
    <v>       0.14814815 </v>
   </varray>
  </kpoints>
  <time name="totalsc">10589.9710586.40</time>
 </calculation>
 <calculation>
  <scstep>
   <time name="dav">  773.68  773.05</time>
   <time name="total">  802.83  802.17</time>
   <energy>
    <i name="alphaZ">   9010.57505126 </i>
    <i name="ewald">-148962.03763717 </i>
    <i name="hartreedc"> -62222.55730359 </i>
    <i name="XCdc">   5612.11667024 </i>
    <i name="pawpsdc"> 171139.53116086 </i>
    <i name="pawaedc">-180173.63916693 </i>
    <i name="eentropy">     -0.03056835 </i>
    <i name="bandstr"> -18782.28021307 </i>
    <i name="atom"> 224013.29143063 </i>
    <i name="e_fr_energy">   -365.03057611 </i>
    <i name="e_wo_entrp">   -365.00000776 </i>
    <i name="e_0_energy">   -365.02038666 </i>
   </energy>
  </scstep>
  <scstep>
   <time name="dav">  627.98  627.47</time>
   <time name="total">  656.94  656.40</time>
   <energy>
    <i name="e_fr_energy">   -365.33188202 </i>
    <i name="e_wo_entrp">   -365.30131856 </i>
    <i name="e_0_energy">   -365.32169420 </i>
   </energy>
  </scstep>
  <scstep>
   <time name="dav">  712.84  712.25</time>
   <time name="total">  741.76  741.15</time>
   <energy>
    <i name="e_fr_energy">   -365.32117905 </i>
    <i name="e_wo_entrp">   -365.29026519 </i>
    <i name="e_0_energy">   -365.31087443 </i>
   </energy>
  </scstep>
  <scstep>
   <time name="dav">  727.34  726.74</time>
   <time name="total">  756.26  755.64</time>
   <energy>
    <i name="e_fr_energy">   -365.32734424 </i>
    <i name="e_wo_entrp">   -365.29660961 </i>
    <i name="e_0_energy">   -365.31709937 </i>
   </energy>
  </scstep>
  <scstep>
   <time name="dav">  652.48  651.95</time>
   <time name="total">  681.18  680.62</time>
   <energy>
    <i name="e_fr_energy">   -365.31832501 </i>
    <i name="e_wo_entrp">   -365.28764193 </i>
    <i name="e_0_energy">   -365.30809732 </i>
   </energy>
  </scstep>
  <scstep>
   <time name="dav">  744.74  744.13</time>
   <time name="total">  773.66  773.02</time>
   <energy>
    <i name="e_fr_energy">   -365.31814649 </i>
    <i name="e_wo_entrp">   -365.28747422 </i>
    <i name="e_0_energy">   -365.30792240 </i>
   </energy>
  </scstep>
  <scstep>
   <time name="dav">  663.13  662.59</time>
   <time name="total">  691.66  691.09</time>
   <energy>
    <i name="e_fr_energy">   -365.31803311 </i>
    <i name="e_wo_entrp">   -365.28737092 </i>
    <i name="e_0_energy">   -365.30781238 </i>
   </energy>
  </scstep>
  <scstep>
   <time name="dav">  685.48  684.91</time>
   <time name="total">  714.65  714.06</time>
   <energy>
    <i name="e_fr_energy">   -365.31790627 </i>
    <i name="e_wo_entrp">   -365.28725484 </i>
    <i name="e_0_energy">   -365.30768913 </i>
   </energy>
  </scstep>
  <scstep>
   <time name="dav">  683.62  683.05</time>
   <time name="total">  712.76  712.18</time>
   <energy>
    <i name="e_fr_energy">   -365.31804455 </i>
    <i name="e_wo_entrp">   -365.28740093 </i>
    <i name="e_0_energy">   -365.30783001 </i>
   </energy>
  </scstep>
  <scstep>
   <time name="dav">  765.26  764.63</time>
   <time name="total">  794.47  794.01</time>
   <energy>
    <i name="e_fr_energy">   -365.31766234 </i>
    <i name="e_wo_entrp">   -365.28703795 </i>
    <i name="e_0_energy">   -365.30745421 </i>
   </energy>
  </scstep>
  <scstep>
   <time name="dav">  778.01  777.37</time>
   <time name="total">  807.09  806.43</time>
   <energy>
    <i name="e_fr_energy">   -365.31760734 </i>
    <i name="e_wo_entrp">   -365.28698305 </i>
    <i name="e_0_energy">   -365.30739925 </i>
   </energy>
  </scstep>
  <scstep>
   <time name="dav">  775.77  775.13</time>
   <time name="total">  805.43  804.77</time>
   <energy>
    <i name="e_fr_energy">   -365.31762373 </i>
    <i name="e_wo_entrp">   -365.28699829 </i>
    <i name="e_0_energy">   -365.30741525 </i>
   </energy>
  </scstep>
  <scstep>
   <time name="dav">  674.76  674.21</time>
   <time name="total">  705.01  704.43</time>
   <energy>
    <i name="e_fr_energy">   -365.31760620 </i>
    <i name="e_wo_entrp">   -365.28698015 </i>
    <i name="e_0_energy">   -365.30739751 </i>
   </energy>
  </scstep>
  <scstep>
   <time name="dav">  700.16  699.59</time>
   <time name="total">  730.89  730.29</time>
   <energy>
    <i name="e_fr_energy">   -365.31760981 </i>
    <i name="e_wo_entrp">   -365.28698244 </i>
    <i name="e_0_energy">   -365.30740069 </i>
   </energy>
  </scstep>
  <scstep>
   <time name="dav">  512.39  511.96</time>
   <time name="total">  542.52  542.11</time>
   <energy>
    <i name="e_fr_energy">   -365.31760609 </i>
    <i name="e_wo_entrp">   -365.28697545 </i>
    <i name="e_0_energy">   -365.30739587 </i>
   </energy>
  </scstep>
  <scstep>
   <time name="dav">  399.32  398.99</time>
   <time name="total">  402.10  401.77</time>
   <energy>
    <i name="alphaZ">   9010.57505126 </i>
    <i name="ewald">-148962.03763717 </i>
    <i name="hartreedc"> -62222.51089858 </i>
    <i name="XCdc">   5612.11422362 </i>
    <i name="pawpsdc"> 171139.53341755 </i>
    <i name="pawaedc">-180173.64166659 </i>
    <i name="eentropy">     -0.03063022 </i>
    <i name="bandstr"> -18782.61089669 </i>
    <i name="atom"> 224013.29143063 </i>
    <i name="e_fr_energy">   -365.31760620 </i>
    <i name="e_wo_entrp">   -365.28697598 </i>
    <i name="e_0_energy">   -365.30739613 </i>
   </energy>
  </scstep>
  <structure>
   <crystal>
    <varray name="basis" >
     <v>       0.00000000       7.26150000       7.26150000 </v>
     <v>       7.26150000       0.00000000       7.26150000 </v>
     <v>       7.26150000       7.26150000       0.00000000 </v>
    </varray>
    <i name="volume">    765.78881842 </i>
    <varray name="rec_basis" >
     <v>      -0.06885630       0.06885630       0.06885630 </v>
     <v>       0.06885630      -0.06885630       0.06885630 </v>
     <v>       0.06885630       0.06885630      -0.06885630 </v>
    </varray>
   </crystal>
   <varray name="positions" >
    <v>       0.00103284      -0.00103284      -0.00103284 </v>
    <v>       0.00000000       0.00000000       0.25000000 </v>
    <v>       0.00000000       0.00000000       0.50000000 </v>
    <v>       0.00000000       0.00000000       0.75000000 </v>
    <v>       0.00000000       0.25000000       0.00000000 </v>
    <v>       0.00000000       0.25000000       0.25000000 </v>
    <v>       0.00000000       0.25000000       0.50000000 </v>
    <v>       0.00000000       0.25000000       0.75000000 </v>
    <v>       0.00000000       0.50000000       0.00000000 </v>
    <v>       0.00000000       0.50000000       0.25000000 </v>
    <v>       0.00000000       0.50000000       0.50000000 </v>
    <v>       0.00000000       0.50000000       0.75000000 </v>
    <v>       0.00000000       0.75000000       0.00000000 </v>
    <v>       0.00000000       0.75000000       0.25000000 </v>
    <v>       0.00000000       0.75000000       0.50000000 </v>
    <v>       0.00000000       0.75000000       0.75000000 </v>
    <v>       0.25000000       0.00000000       0.00000000 </v>
    <v>       0.25000000       0.00000000       0.25000000 </v>
    <v>       0.25000000       0.00000000       0.50000000 </v>
    <v>       0.25000000       0.00000000       0.75000000 </v>
    <v>       0.25000000       0.25000000       0.00000000 </v>
    <v>       0.25000000       0.25000000       0.25000000 </v>
    <v>       0.25000000       0.25000000       0.50000000 </v>
    <v>       0.25000000       0.25000000       0.75000000 </v>
    <v>       0.25000000       0.50000000       0.00000000 </v>
    <v>       0.25000000       0.50000000       0.25000000 </v>
    <v>       0.25000000       0.50000000       0.50000000 </v>
    <v>       0.25000000       0.50000000       0.75000000 </v>
    <v>       0.25000000       0.75000000       0.00000000 </v>
    <v>       0.25000000       0.75000000       0.25000000 </v>
    <v>       0.25000000       0.75000000       0.50000000 </v>
    <v>       0.25000000       0.75000000       0.75000000 </v>
    <v>       0.50000000       0.00000000       0.00000000 </v>
    <v>       0.50000000       0.00000000       0.25000000 </v>
    <v>       0.50000000       0.00000000       0.50000000 </v>
    <v>       0.50000000       0.00000000       0.75000000 </v>
    <v>       0.50000000       0.25000000       0.00000000 </v>
    <v>       0.50000000       0.25000000       0.25000000 </v>
    <v>       0.50000000       0.25000000       0.50000000 </v>
    <v>       0.50000000       0.25000000       0.75000000 </v>
    <v>       0.50000000       0.50000000       0.00000000 </v>
    <v>       0.50000000       0.50000000       0.25000000 </v>
    <v>       0.50000000       0.50000000       0.50000000 </v>
    <v>       0.50000000       0.50000000       0.75000000 </v>
    <v>       0.50000000       0.75000000       0.00000000 </v>
    <v>       0.50000000       0.75000000       0.25000000 </v>
    <v>       0.50000000       0.75000000       0.50000000 </v>
    <v>       0.50000000       0.75000000       0.75000000 </v>
    <v>       0.75000000       0.00000000       0.00000000 </v>
    <v>       0.75000000       0.00000000       0.25000000 </v>
    <v>       0.75000000       0.00000000       0.50000000 </v>
    <v>       0.75000000       0.00000000       0.75000000 </v>
    <v>       0.75000000       0.25000000       0.00000000 </v>
    <v>       0.75000000       0.25000000       0.25000000 </v>
    <v>       0.75000000       0.25000000       0.50000000 </v>
    <v>       0.75000000       0.25000000       0.75000000 </v>
    <v>       0.75000000       0.50000000       0.00000000 </v>
    <v>       0.75000000       0.50000000       0.25000000 </v>
    <v>       0.75000000       0.50000000       0.50000000 </v>
    <v>       0.75000000       0.50000000       0.75000000 </v>
    <v>       0.75000000       0.75000000       0.00000000 </v>
    <v>       0.75000000       0.75000000       0.25000000 </v>
    <v>       0.75000000       0.75000000       0.50000000 </v>
    <v>       0.75000000       0.75000000       0.75000000 </v>
   </varray>
  </structure>
  <varray name="forces" >
[...]
       <r>    21.0576     0.0000   646.0000 </r>
       <r>    21.3387     0.0000   646.0000 </r>
       <r>    21.6198     0.0000   646.0000 </r>
       <r>    21.9008     0.0000   646.0000 </r>
       <r>    22.1819     0.0000   646.0000 </r>
       <r>    22.4629     0.0000   646.0000 </r>
       <r>    22.7440     0.0000   646.0000 </r>
       <r>    23.0250     0.0000   646.0000 </r>
       <r>    23.3061     0.0000   646.0000 </r>
      </set>
      <set comment="spin 2">
       <r>   -61.0101     0.0000     0.0000 </r>
       <r>   -60.7290     0.0000     0.0000 </r>
       <r>   -60.4480     0.0000     0.0000 </r>
       <r>   -60.1669     0.0000     0.0000 </r>
       <r>   -59.8859     0.0000     0.0000 </r>
       <r>   -59.6048     0.0000     0.0000 </r>
       <r>   -59.3237     0.0000     0.0000 </r>
       <r>   -59.0427     0.0000     0.0000 </r>
       <r>   -58.7616     0.0000     0.0000 </r>
       <r>   -58.4806     0.0000     0.0000 </r>
       <r>   -58.1995     0.0000     0.0000 </r>
       <r>   -57.9185    -0.0000    -0.0000 </r>
       <r>   -57.6374    -0.0000    -0.0000 </r>
       <r>   -57.3564    -0.0000    -0.0000 </r>
       <r>   -57.0753    -0.0000    -0.0000 </r>
       <r>   -56.7943    -0.0880    -0.0247 </r>
       <r>   -56.5132   -14.1076    -3.9897 </r>
       <r>   -56.2322   225.9418    59.5121 </r>
       <r>   -55.9511   489.1949   197.0022 </r>
       <r>   -55.6700   -16.9484   192.2388 </r>
       <r>   -55.3890    -0.8493   192.0001 </r>
       <r>   -55.1079    -0.0003   192.0000 </r>
       <r>   -54.8269    -0.0000   192.0000 </r>
       <r>   -54.5458     0.0000   192.0000 </r>
       <r>   -54.2648     0.0000   192.0000 </r>
       <r>   -53.9837     0.0000   192.0000 </r>
       <r>   -53.7027     0.0000   192.0000 </r>
       <r>   -53.4216     0.0000   192.0000 </r>
       <r>   -53.1406     0.0000   192.0000 </r>
       <r>   -52.8595     0.0000   192.0000 </r>
       <r>   -52.5785     0.0000   192.0000 </r>
       <r>   -52.2974     0.0000   192.0000 </r>
       <r>   -52.0163     0.0000   192.0000 </r>
       <r>   -51.7353     0.0000   192.0000 </r>
       <r>   -51.4542     0.0000   192.0000 </r>
       <r>   -51.1732     0.0000   192.0000 </r>
       <r>   -50.8921     0.0000   192.0000 </r>
       <r>   -50.6111     0.0000   192.0000 </r>
       <r>   -50.3300     0.0000   192.0000 </r>
       <r>   -50.0490     0.0000   192.0000 </r>
       <r>   -49.7679     0.0000   192.0000 </r>
       <r>   -49.4869     0.0000   192.0000 </r>
       <r>   -49.2058     0.0000   192.0000 </r>
       <r>   -48.9248     0.0000   192.0000 </r>
       <r>   -48.6437     0.0000   192.0000 </r>
       <r>   -48.3626     0.0000   192.0000 </r>
       <r>   -48.0816     0.0000   192.0000 </r>
       <r>   -47.8005     0.0000   192.0000 </r>
       <r>   -47.5195     0.0000   192.0000 </r>
       <r>   -47.2384     0.0000   192.0000 </r>
       <r>   -46.9574     0.0000   192.0000 </r>
       <r>   -46.6763     0.0000   192.0000 </r>
       <r>   -46.3953     0.0000   192.0000 </r>
       <r>   -46.1142     0.0000   192.0000 </r>
       <r>   -45.8332     0.0000   192.0000 </r>
       <r>   -45.5521     0.0000   192.0000 </r>
       <r>   -45.2711     0.0000   192.0000 </r>
       <r>   -44.9900     0.0000   192.0000 </r>
       <r>   -44.7089     0.0000   192.0000 </r>
       <r>   -44.4279     0.0000   192.0000 </r>
       <r>   -44.1468     0.0000   192.0000 </r>
       <r>   -43.8658     0.0000   192.0000 </r>
       <r>   -43.5847     0.0000   192.0000 </r>
       <r>   -43.3037     0.0000   192.0000 </r>
       <r>   -43.0226     0.0000   192.0000 </r>
       <r>   -42.7416     0.0000   192.0000 </r>
       <r>   -42.4605     0.0000   192.0000 </r>
       <r>   -42.1795     0.0000   192.0000 </r>
       <r>   -41.8984     0.0000   192.0000 </r>
       <r>   -41.6174     0.0000   192.0000 </r>
       <r>   -41.3363     0.0000   192.0000 </r>
       <r>   -41.0553     0.0000   192.0000 </r>
       <r>   -40.7742     0.0000   192.0000 </r>
       <r>   -40.4931     0.0000   192.0000 </r>
       <r>   -40.2121     0.0000   192.0000 </r>
       <r>   -39.9310     0.0000   192.0000 </r>
       <r>   -39.6500     0.0000   192.0000 </r>
       <r>   -39.3689     0.0000   192.0000 </r>
       <r>   -39.0879     0.0000   192.0000 </r>
       <r>   -38.8068     0.0000   192.0000 </r>
       <r>   -38.5258     0.0000   192.0000 </r>
       <r>   -38.2447     0.0000   192.0000 </r>
       <r>   -37.9637     0.0000   192.0000 </r>
       <r>   -37.6826     0.0000   192.0000 </r>
       <r>   -37.4016     0.0000   192.0000 </r>
       <r>   -37.1205     0.0000   192.0000 </r>
       <r>   -36.8394     0.0000   192.0000 </r>
       <r>   -36.5584     0.0000   192.0000 </r>
       <r>   -36.2773     0.0000   192.0000 </r>
       <r>   -35.9963     0.0000   192.0000 </r>
       <r>   -35.7152     0.0000   192.0000 </r>
       <r>   -35.4342     0.0000   192.0000 </r>
       <r>   -35.1531     0.0000   192.0000 </r>
       <r>   -34.8721     0.0000   192.0000 </r>
       <r>   -34.5910     0.0000   192.0000 </r>
       <r>   -34.3100     0.0000   192.0000 </r>
       <r>   -34.0289     0.0000   192.0000 </r>
       <r>   -33.7479     0.0000   192.0000 </r>
       <r>   -33.4668     0.0000   192.0000 </r>
       <r>   -33.1857     0.0000   192.0000 </r>
       <r>   -32.9047     0.0000   192.0000 </r>
       <r>   -32.6236     0.0000   192.0000 </r>
       <r>   -32.3426     0.0000   192.0000 </r>
       <r>   -32.0615     0.0000   192.0000 </r>
       <r>   -31.7805     0.0000   192.0000 </r>
       <r>   -31.4994     0.0000   192.0000 </r>
       <r>   -31.2184     0.0000   192.0000 </r>
       <r>   -30.9373     0.0000   192.0000 </r>
       <r>   -30.6563     0.0000   192.0000 </r>
       <r>   -30.3752     0.0000   192.0000 </r>
       <r>   -30.0942     0.0000   192.0000 </r>
       <r>   -29.8131     0.0000   192.0000 </r>
       <r>   -29.5320     0.0000   192.0000 </r>
       <r>   -29.2510     0.0000   192.0000 </r>
       <r>   -28.9699     0.0000   192.0000 </r>
       <r>   -28.6889     0.0000   192.0000 </r>
       <r>   -28.4078     0.0000   192.0000 </r>
       <r>   -28.1268     0.0000   192.0000 </r>
       <r>   -27.8457     0.0000   192.0000 </r>
       <r>   -27.5647     0.0000   192.0000 </r>
       <r>   -27.2836     0.0000   192.0000 </r>
       <r>   -27.0026     0.0000   192.0000 </r>
       <r>   -26.7215     0.0000   192.0000 </r>
       <r>   -26.4405     0.0000   192.0000 </r>
       <r>   -26.1594     0.0000   192.0000 </r>
       <r>   -25.8783     0.0000   192.0000 </r>
       <r>   -25.5973     0.0000   192.0000 </r>
       <r>   -25.3162     0.0000   192.0000 </r>
       <r>   -25.0352     0.0000   192.0000 </r>
       <r>   -24.7541     0.0000   192.0000 </r>
       <r>   -24.4731     0.0000   192.0000 </r>
       <r>   -24.1920     0.0000   192.0000 </r>
       <r>   -23.9110     0.0000   192.0000 </r>
       <r>   -23.6299     0.0000   192.0000 </r>
       <r>   -23.3489     0.0000   192.0000 </r>
       <r>   -23.0678     0.0000   192.0000 </r>
       <r>   -22.7868     0.0000   192.0000 </r>
       <r>   -22.5057     0.0000   192.0000 </r>
       <r>   -22.2246     0.0000   192.0000 </r>
       <r>   -21.9436     0.0000   192.0000 </r>
       <r>   -21.6625     0.0000   192.0000 </r>
       <r>   -21.3815     0.0000   192.0000 </r>
       <r>   -21.1004     0.0000   192.0000 </r>
       <r>   -20.8194     0.0000   192.0000 </r>
       <r>   -20.5383     0.0000   192.0000 </r>
       <r>   -20.2573     0.0000   192.0000 </r>
       <r>   -19.9762     0.0000   192.0000 </r>
       <r>   -19.6952     0.0000   192.0000 </r>
       <r>   -19.4141     0.0000   192.0000 </r>
       <r>   -19.1331     0.0000   192.0000 </r>
       <r>   -18.8520     0.0000   192.0000 </r>
       <r>   -18.5709     0.0000   192.0000 </r>
       <r>   -18.2899     0.0000   192.0000 </r>
       <r>   -18.0088     0.0000   192.0000 </r>
       <r>   -17.7278     0.0000   192.0000 </r>
       <r>   -17.4467     0.0000   192.0000 </r>
       <r>   -17.1657     0.0000   192.0000 </r>
       <r>   -16.8846     0.0000   192.0000 </r>
       <r>   -16.6036     0.0000   192.0000 </r>
       <r>   -16.3225     0.0000   192.0000 </r>
       <r>   -16.0415     0.0000   192.0000 </r>
       <r>   -15.7604     0.0000   192.0000 </r>
       <r>   -15.4794     0.0000   192.0000 </r>
       <r>   -15.1983     0.0000   192.0000 </r>
       <r>   -14.9172     0.0000   192.0000 </r>
       <r>   -14.6362     0.0000   192.0000 </r>
       <r>   -14.3551     0.0000   192.0000 </r>
       <r>   -14.0741     0.0000   192.0000 </r>
       <r>   -13.7930     0.0000   192.0000 </r>
       <r>   -13.5120     0.0000   192.0000 </r>
       <r>   -13.2309     0.0000   192.0000 </r>
       <r>   -12.9499     0.0000   192.0000 </r>
       <r>   -12.6688     0.0000   192.0000 </r>
       <r>   -12.3878     0.0000   192.0000 </r>
       <r>   -12.1067     0.0000   192.0000 </r>
       <r>   -11.8257     0.0000   192.0000 </r>
       <r>   -11.5446     0.0000   192.0000 </r>
       <r>   -11.2635     0.0000   192.0000 </r>
       <r>   -10.9825     0.0000   192.0000 </r>
       <r>   -10.7014     0.0000   192.0000 </r>
       <r>   -10.4204     0.0000   192.0000 </r>
       <r>   -10.1393     0.0000   192.0000 </r>
       <r>    -9.8583     0.0000   192.0000 </r>
       <r>    -9.5772     0.0000   192.0000 </r>
       <r>    -9.2962     0.0000   192.0000 </r>
       <r>    -9.0151     0.0000   192.0000 </r>
       <r>    -8.7341     0.0000   192.0000 </r>
       <r>    -8.4530     0.0000   192.0000 </r>
       <r>    -8.1720     0.0000   192.0000 </r>
       <r>    -7.8909     0.0000   192.0000 </r>
       <r>    -7.6098     0.0000   192.0000 </r>
       <r>    -7.3288     0.0000   192.0000 </r>
       <r>    -7.0477     0.0000   192.0000 </r>
       <r>    -6.7667     0.0000   192.0000 </r>
       <r>    -6.4856     0.0000   192.0000 </r>
       <r>    -6.2046     0.0000   192.0000 </r>
       <r>    -5.9235     0.0000   192.0000 </r>
       <r>    -5.6425     0.0000   192.0000 </r>
       <r>    -5.3614     0.0000   192.0000 </r>
       <r>    -5.0804     0.0000   192.0000 </r>
       <r>    -4.7993     0.0000   192.0000 </r>
       <r>    -4.5183     0.0000   192.0000 </r>
       <r>    -4.2372     0.0000   192.0000 </r>
       <r>    -3.9561     0.0000   192.0000 </r>
       <r>    -3.6751     0.0000   192.0000 </r>
       <r>    -3.3940    -0.0000   192.0000 </r>
       <r>    -3.1130    -0.0000   192.0000 </r>
       <r>    -2.8319    -0.0000   192.0000 </r>
       <r>    -2.5509    -0.0000   192.0000 </r>
       <r>    -2.2698    -0.0001   192.0000 </r>
       <r>    -1.9888    -0.0053   191.9985 </r>
       <r>    -1.7077     0.0253   192.0056 </r>
       <r>    -1.4267     1.0825   192.3098 </r>
       <r>    -1.1456     1.1101   192.6218 </r>
       <r>    -0.8646     2.3412   193.2798 </r>
       <r>    -0.5835     3.2759   194.2005 </r>
       <r>    -0.3024     0.8219   194.4315 </r>
       <r>    -0.0214     5.4975   195.9766 </r>
       <r>     0.2597     3.2546   196.8913 </r>
       <r>     0.5407     4.5284   198.1640 </r>
       <r>     0.8218     1.2829   198.5246 </r>
       <r>     1.1028     9.3128   201.1420 </r>
       <r>     1.3839     4.7331   202.4723 </r>
       <r>     1.6649     6.3285   204.2510 </r>
       <r>     1.9460     3.7672   205.3097 </r>
       <r>     2.2270    11.9287   208.6623 </r>
       <r>     2.5081    12.6198   212.2092 </r>
       <r>     2.7891    10.7149   215.2206 </r>
       <r>     3.0702    24.9807   222.2416 </r>
       <r>     3.3513    39.1203   233.2365 </r>
       <r>     3.6323    27.8370   241.0602 </r>
       <r>     3.9134    57.0159   257.0847 </r>
       <r>     4.1944    61.5129   274.3731 </r>
       <r>     4.4755    56.6777   290.3026 </r>
       <r>     4.7565    65.9018   308.8246 </r>
       <r>     5.0376    85.9438   332.9794 </r>
       <r>     5.3186   100.3331   361.1784 </r>
       <r>     5.5997   100.9403   389.5481 </r>
       <r>     5.8807    76.1099   410.9391 </r>
       <r>     6.1618    95.4907   437.7771 </r>
       <r>     6.4428    78.9120   459.9556 </r>
       <r>     6.7239    96.0494   486.9507 </r>
       <r>     7.0050   117.3165   519.9230 </r>
       <r>     7.2860    44.0361   532.2995 </r>
       <r>     7.5671    16.1085   536.8268 </r>
       <r>     7.8481     6.5133   538.6574 </r>
       <r>     8.1292    12.5478   542.1840 </r>
       <r>     8.4102    13.3733   545.9426 </r>
       <r>     8.6913    12.0205   549.3210 </r>
       <r>     8.9723     5.8855   550.9752 </r>
       <r>     9.2534     9.3807   553.6117 </r>
       <r>     9.5344    11.7924   556.9260 </r>
       <r>     9.8155     7.2965   558.9767 </r>
       <r>    10.0965    11.2205   562.1302 </r>
       <r>    10.3776     3.2790   563.0518 </r>
       <r>    10.6587    12.1684   566.4718 </r>
       <r>    10.9397     4.7751   567.8138 </r>
       <r>    11.2208    -0.2084   567.7553 </r>
       <r>    11.5018     9.4972   570.4245 </r>
       <r>    11.7829     6.1192   572.1443 </r>
       <r>    12.0639     3.1806   573.0382 </r>
       <r>    12.3450     8.0445   575.2992 </r>
       <r>    12.6260    11.7759   578.6089 </r>
       <r>    12.9071    10.4037   581.5329 </r>
       <r>    13.1881     6.9484   583.4857 </r>
       <r>    13.4692     8.1511   585.7766 </r>
       <r>    13.7502     8.0891   588.0501 </r>
       <r>    14.0313    12.5504   591.5774 </r>
       <r>    14.3124     5.2420   593.0507 </r>
       <r>    14.5934    13.7800   596.9236 </r>
       <r>    14.8745     8.4675   599.3034 </r>
       <r>    15.1555     4.6660   600.6148 </r>
       <r>    15.4366     8.4365   602.9859 </r>
       <r>    15.7176     9.6279   605.6919 </r>
       <r>    15.9987     6.8402   607.6144 </r>
       <r>    16.2797    11.6700   610.8943 </r>
       <r>    16.5608     8.1376   613.1814 </r>
       <r>    16.8418    18.3207   618.3305 </r>
       <r>    17.1229    16.5729   622.9883 </r>
       <r>    17.4039     6.1949   624.7294 </r>
       <r>    17.6850    16.6320   629.4039 </r>
       <r>    17.9661    11.0492   632.5093 </r>
       <r>    18.2471     8.6870   634.9508 </r>
       <r>    18.5282    12.4776   638.4577 </r>
       <r>    18.8092     7.6371   640.6041 </r>
       <r>    19.0903    13.3063   644.3439 </r>
       <r>    19.3713     4.0575   645.4843 </r>
       <r>    19.6524     1.8627   646.0078 </r>
       <r>    19.9334    -0.0215   646.0018 </r>
       <r>    20.2145    -0.0064   646.0000 </r>
       <r>    20.4955    -0.0000   646.0000 </r>
       <r>    20.7766    -0.0000   646.0000 </r>
       <r>    21.0576     0.0000   646.0000 </r>
       <r>    21.3387     0.0000   646.0000 </r>
       <r>    21.6198     0.0000   646.0000 </r>
       <r>    21.9008     0.0000   646.0000 </r>
       <r>    22.1819     0.0000   646.0000 </r>
       <r>    22.4629     0.0000   646.0000 </r>
       <r>    22.7440     0.0000   646.0000 </r>
       <r>    23.0250     0.0000   646.0000 </r>
       <r>    23.3061     0.0000   646.0000 </r>
      </set>
     </set>
    </array>
   </total>
  </dos>
 </calculation>
 <structure name="finalpos" >
  <crystal>
   <varray name="basis" >
    <v>       0.00000000       7.26150000       7.26150000 </v>
    <v>       7.26150000       0.00000000       7.26150000 </v>
    <v>       7.26150000       7.26150000       0.00000000 </v>
   </varray>
   <i name="volume">    765.78881842 </i>
   <varray name="rec_basis" >
    <v>      -0.06885630       0.06885630       0.06885630 </v>
    <v>       0.06885630      -0.06885630       0.06885630 </v>
    <v>       0.06885630       0.06885630      -0.06885630 </v>
   </varray>
  </crystal>
  <varray name="positions" >
   <v>       0.00206569      -0.00206569      -0.00206569 </v>
   <v>       0.00000000       0.00000000       0.25000000 </v>
   <v>       0.00000000       0.00000000       0.50000000 </v>
   <v>       0.00000000       0.00000000       0.75000000 </v>
   <v>       0.00000000       0.25000000       0.00000000 </v>
   <v>       0.00000000       0.25000000       0.25000000 </v>
   <v>       0.00000000       0.25000000       0.50000000 </v>
   <v>       0.00000000       0.25000000       0.75000000 </v>
   <v>       0.00000000       0.50000000       0.00000000 </v>
   <v>       0.00000000       0.50000000       0.25000000 </v>
   <v>       0.00000000       0.50000000       0.50000000 </v>
   <v>       0.00000000       0.50000000       0.75000000 </v>
   <v>       0.00000000       0.75000000       0.00000000 </v>
   <v>       0.00000000       0.75000000       0.25000000 </v>
   <v>       0.00000000       0.75000000       0.50000000 </v>
   <v>       0.00000000       0.75000000       0.75000000 </v>
   <v>       0.25000000       0.00000000       0.00000000 </v>
   <v>       0.25000000       0.00000000       0.25000000 </v>
   <v>       0.25000000       0.00000000       0.50000000 </v>
   <v>       0.25000000       0.00000000       0.75000000 </v>
   <v>       0.25000000       0.25000000       0.00000000 </v>
   <v>       0.25000000       0.25000000       0.25000000 </v>
   <v>       0.25000000       0.25000000       0.50000000 </v>
   <v>       0.25000000       0.25000000       0.75000000 </v>
   <v>       0.25000000       0.50000000       0.00000000 </v>
   <v>       0.25000000       0.50000000       0.25000000 </v>
   <v>       0.25000000       0.50000000       0.50000000 </v>
   <v>       0.25000000       0.50000000       0.75000000 </v>
   <v>       0.25000000       0.75000000       0.00000000 </v>
   <v>       0.25000000       0.75000000       0.25000000 </v>
   <v>       0.25000000       0.75000000       0.50000000 </v>
   <v>       0.25000000       0.75000000       0.75000000 </v>
   <v>       0.50000000       0.00000000       0.00000000 </v>
   <v>       0.50000000       0.00000000       0.25000000 </v>
   <v>       0.50000000       0.00000000       0.50000000 </v>
   <v>       0.50000000       0.00000000       0.75000000 </v>
   <v>       0.50000000       0.25000000       0.00000000 </v>
   <v>       0.50000000       0.25000000       0.25000000 </v>
   <v>       0.50000000       0.25000000       0.50000000 </v>
   <v>       0.50000000       0.25000000       0.75000000 </v>
   <v>       0.50000000       0.50000000       0.00000000 </v>
   <v>       0.50000000       0.50000000       0.25000000 </v>
   <v>       0.50000000       0.50000000       0.50000000 </v>
   <v>       0.50000000       0.50000000       0.75000000 </v>
   <v>       0.50000000       0.75000000       0.00000000 </v>
   <v>       0.50000000       0.75000000       0.25000000 </v>
   <v>       0.50000000       0.75000000       0.50000000 </v>
   <v>       0.50000000       0.75000000       0.75000000 </v>
   <v>       0.75000000       0.00000000       0.00000000 </v>
   <v>       0.75000000       0.00000000       0.25000000 </v>
   <v>       0.75000000       0.00000000       0.50000000 </v>
   <v>       0.75000000       0.00000000       0.75000000 </v>
   <v>       0.75000000       0.25000000       0.00000000 </v>
   <v>       0.75000000       0.25000000       0.25000000 </v>
   <v>       0.75000000       0.25000000       0.50000000 </v>
   <v>       0.75000000       0.25000000       0.75000000 </v>
   <v>       0.75000000       0.50000000       0.00000000 </v>
   <v>       0.75000000       0.50000000       0.25000000 </v>
   <v>       0.75000000       0.50000000       0.50000000 </v>
   <v>       0.75000000       0.50000000       0.75000000 </v>
   <v>       0.75000000       0.75000000       0.00000000 </v>
   <v>       0.75000000       0.75000000       0.25000000 </v>
   <v>       0.75000000       0.75000000       0.50000000 </v>
   <v>       0.75000000       0.75000000       0.75000000 </v>
  </varray>
 </structure>
</modeling>
