       N       E                     dE             d eps       ncg     rms          rms(c)
DAV:   1     0.143474318759E+05    0.14347E+05   -0.52303E+05 11784   0.198E+03
DAV:   2     0.944290733644E+03   -0.13403E+05   -0.12957E+05 10336   0.661E+02
DAV:   3    -0.353953587305E+03   -0.12982E+04   -0.10785E+04 10608   0.213E+02
DAV:   4    -0.419497945532E+03   -0.65544E+02   -0.64243E+02 11104   0.503E+01
DAV:   5    -0.420451222967E+03   -0.95328E+00   -0.95281E+00 11056   0.562E+00    0.664E+01
DAV:   6    -0.376128981427E+03    0.44322E+02   -0.48972E+02 10830   0.660E+01    0.380E+01
DAV:   7    -0.359068084818E+03    0.17061E+02   -0.75065E+01 10840   0.261E+01    0.621E+00
DAV:   8    -0.358965416369E+03    0.10267E+00   -0.71700E-01 10872   0.182E+00    0.249E+00
DAV:   9    -0.358942559737E+03    0.22857E-01   -0.59979E-02 11888   0.469E-01    0.545E-01
DAV:  10    -0.358946376418E+03   -0.38167E-02   -0.54667E-03 11046   0.133E-01    0.134E-01
DAV:  11    -0.358946570152E+03   -0.19373E-03   -0.59614E-04 11120   0.626E-02    0.507E-02
DAV:  12    -0.358946590045E+03   -0.19894E-04   -0.55137E-05 10616   0.163E-02    0.179E-02
DAV:  13    -0.358946591113E+03   -0.10675E-05   -0.51964E-06  8800   0.523E-03    0.471E-03
DAV:  14    -0.358946594635E+03   -0.35226E-05   -0.41827E-07  5514   0.150E-03    0.239E-03
DAV:  15    -0.358946595167E+03   -0.53152E-06   -0.68441E-08  5420   0.697E-04
   1 F= -.35894660E+03 E0= -.35886582E+03  d E =-.242330E+00  mag=    35.0956
 Found     1 degrees of freedom:
       N       E                     dE             d eps       ncg     rms          rms(c)
DAV:   1    -0.358610308256E+03    0.33629E+00   -0.93306E+00 20416   0.296E+01    0.975E-01
DAV:   2    -0.358950168272E+03   -0.33986E+00   -0.32495E+00 16154   0.312E+00    0.254E+00
DAV:   3    -0.358944346632E+03    0.58216E-02   -0.15699E-01 19148   0.185E+00    0.122E+00
DAV:   4    -0.358947435465E+03   -0.30888E-02   -0.22874E-02 19096   0.111E+00    0.151E+00
DAV:   5    -0.358940347524E+03    0.70879E-02   -0.76259E-03 16794   0.786E-01    0.379E-01
DAV:   6    -0.358940185545E+03    0.16198E-03   -0.11312E-03 18456   0.188E-01    0.290E-01
DAV:   7    -0.358939966564E+03    0.21898E-03   -0.32689E-04 17442   0.130E-01    0.264E-01
DAV:   8    -0.358939786655E+03    0.17991E-03   -0.32924E-04 17768   0.154E-01    0.239E-01
DAV:   9    -0.358939812674E+03   -0.26019E-04   -0.53517E-04 18256   0.201E-01    0.300E-01
DAV:  10    -0.358939543082E+03    0.26959E-03   -0.50170E-04 20008   0.189E-01    0.168E-01
DAV:  11    -0.358939460105E+03    0.82977E-04   -0.18194E-04 19208   0.954E-02    0.275E-02
DAV:  12    -0.358939465523E+03   -0.54176E-05   -0.40749E-05 18448   0.246E-02    0.265E-02
DAV:  13    -0.358939464526E+03    0.99657E-06   -0.76706E-06 16496   0.213E-02
   2 F= -.35893946E+03 E0= -.35885873E+03  d E =-.242217E+00  mag=    35.0972
       N       E                     dE             d eps       ncg     rms          rms(c)
DAV:   1    -0.358800938655E+03    0.13853E+00   -0.45447E+00 20520   0.179E+01    0.347E-01
DAV:   2    -0.358945566760E+03   -0.14463E+00   -0.14038E+00 16052   0.196E+00    0.126E+00
DAV:   3    -0.358944863319E+03    0.70344E-03   -0.48429E-02 19088   0.880E-01    0.322E-01
DAV:   4    -0.358945826153E+03   -0.96283E-03   -0.47695E-03 19600   0.413E-01    0.550E-01
DAV:   5    -0.358944924573E+03    0.90158E-03   -0.13061E-03 16728   0.303E-01    0.151E-01
DAV:   6    -0.358944880837E+03    0.43736E-04   -0.17576E-04 17600   0.896E-02    0.927E-02
DAV:   7    -0.358944854322E+03    0.26514E-04   -0.71026E-05 17992   0.629E-02    0.925E-02
DAV:   8    -0.358944828870E+03    0.25452E-04   -0.83205E-05 18088   0.782E-02    0.840E-02
DAV:   9    -0.358944856152E+03   -0.27282E-04   -0.10622E-04 18192   0.918E-02    0.127E-01
DAV:  10    -0.358944809852E+03    0.46299E-04   -0.85592E-05 17952   0.768E-02    0.614E-02
DAV:  11    -0.358944799318E+03    0.10534E-04   -0.23473E-05 19616   0.340E-02    0.852E-03
DAV:  12    -0.358944799753E+03   -0.43490E-06   -0.42399E-06 15072   0.889E-03
   3 F= -.35894480E+03 E0= -.35886403E+03  d E =-.242311E+00  mag=    35.0963
       N       E                     dE             d eps       ncg     rms          rms(c)
DAV:   1    -0.358654097854E+03    0.29070E+00   -0.83027E+00 20582   0.262E+01    0.885E-01
DAV:   2    -0.358953865405E+03   -0.29977E+00   -0.28621E+00 16190   0.294E+00    0.239E+00
DAV:   3    -0.358948601660E+03    0.52637E-02   -0.13674E-01 18464   0.173E+00    0.108E+00
DAV:   4    -0.358951346811E+03   -0.27452E-02   -0.18660E-02 19440   0.100E+00    0.137E+00
DAV:   5    -0.358945531019E+03    0.58158E-02   -0.64256E-03 16752   0.716E-01    0.342E-01
DAV:   6    -0.358945398316E+03    0.13270E-03   -0.93897E-04 18576   0.174E-01    0.261E-01
DAV:   7    -0.358945197410E+03    0.20091E-03   -0.29664E-04 17472   0.127E-01    0.239E-01
DAV:   8    -0.358945054829E+03    0.14258E-03   -0.34441E-04 17824   0.157E-01    0.224E-01
DAV:   9    -0.358945108956E+03   -0.54127E-04   -0.53982E-04 18344   0.200E-01    0.290E-01
DAV:  10    -0.358944864019E+03    0.24494E-03   -0.45769E-04 19456   0.180E-01    0.152E-01
DAV:  11    -0.358944795569E+03    0.68450E-04   -0.15141E-04 19112   0.875E-02    0.219E-02
DAV:  12    -0.358944800640E+03   -0.50708E-05   -0.32239E-05 17080   0.217E-02    0.241E-02
DAV:  13    -0.358944799678E+03    0.96174E-06   -0.58941E-06 16040   0.191E-02
   4 F= -.35894480E+03 E0= -.35886403E+03  d E =-.242318E+00  mag=    35.0966
       N       E                     dE             d eps       ncg     rms          rms(c)
DAV:   1    -0.358791203233E+03    0.15360E+00   -0.44932E+00 20518   0.179E+01    0.532E-01
DAV:   2    -0.358939861559E+03   -0.14866E+00   -0.14574E+00 16000   0.198E+00    0.122E+00
DAV:   3    -0.358941260841E+03   -0.13993E-02   -0.57384E-02 18968   0.106E+00    0.762E-01
DAV:   4    -0.358941572935E+03   -0.31209E-03   -0.80318E-03 18834   0.599E-01    0.767E-01
DAV:   5    -0.358939733647E+03    0.18393E-02   -0.19805E-03 16780   0.403E-01    0.198E-01
DAV:   6    -0.358939697944E+03    0.35703E-04   -0.30917E-04 18416   0.926E-02    0.164E-01
DAV:   7    -0.358939622943E+03    0.75001E-04   -0.79168E-05 17152   0.642E-02    0.143E-01
DAV:   8    -0.358939573257E+03    0.49687E-04   -0.80571E-05 18008   0.770E-02    0.131E-01
DAV:   9    -0.358939553570E+03    0.19686E-04   -0.14200E-04 18320   0.107E-01    0.152E-01
DAV:  10    -0.358939471048E+03    0.82523E-04   -0.12762E-04 20008   0.914E-02    0.588E-02
DAV:  11    -0.358939464344E+03    0.67033E-05   -0.39156E-05 19936   0.364E-02    0.209E-02
DAV:  12    -0.358939464325E+03    0.18917E-07   -0.88144E-06 17112   0.142E-02
   5 F= -.35893946E+03 E0= -.35885873E+03  d E =-.242211E+00  mag=    35.0969
