 vasp.5.4.1 05Feb16 (build Oct 12 2016 17:31:35) complex                        
  
 executed on           IFC91_ompi date 2020.09.07  12:04:19
 running on    1 total cores
 distrk:  each k-point on    1 cores,    1 groups
 distr:  one band on NCORES_PER_BAND=   1 cores,    1 groups


--------------------------------------------------------------------------------------------------------


 INCAR:
 POTCAR:   PAW_PBE Ni_pv 06Sep2000                
 POTCAR:   PAW_PBE Ni_pv 06Sep2000                
  local pseudopotential read in
  partial core-charges read in
  atomic valenz-charges read in
  non local Contribution for L=           1  read in
    real space projection operators read in
  non local Contribution for L=           1  read in
    real space projection operators read in
  non local Contribution for L=           2  read in
    real space projection operators read in
  non local Contribution for L=           2  read in
    real space projection operators read in
  non local Contribution for L=           0  read in
    real space projection operators read in
  non local Contribution for L=           0  read in
    real space projection operators read in
    PAW grid and wavefunctions read in
 
   number of l-projection  operators is LMAX  =           6
   number of lm-projection operators is LMMAX =          18
 
 Optimization of the real space projectors (new method)

 maximal supplied QI-value         = 18.90
 optimisation between [QCUT,QGAM] = [  9.83, 19.65] = [ 27.04,108.16] Ry 
 Optimized for a Real-space Cutoff    1.44 Angstroem

   l    n(q)    QCUT    max X(q) W(low)/X(q) W(high)/X(q)  e(spline) 
   1      8     9.827     3.231    0.38E-04    0.39E-04    0.57E-07
   1      8     9.827     4.241    0.57E-04    0.19E-03    0.30E-06
   2      7     9.827     3.566    0.29E-04    0.66E-04    0.48E-07
   2      7     9.827    20.429    0.17E-03    0.37E-03    0.30E-06
   0      8     9.827    19.799    0.18E-04    0.76E-05    0.78E-08
   0      8     9.827    52.283    0.39E-04    0.68E-04    0.44E-07
 PAW_PBE Ni_pv 06Sep2000                :
 energy of atom  1       EATOM=-3500.3496
 kinetic energy error for atom=    0.1419 (will be added to EATOM!!)
 
 
 POSCAR: Supercell by Yi Wang                    
  positions in direct lattice
  No initial velocities read in
 exchange correlation table for  LEXCH =        8
   RHO(1)=    0.500       N(1)  =     2000
   RHO(2)=  100.500       N(2)  =     4000
 


--------------------------------------------------------------------------------------------------------


 ion  position               nearest neighbor table
   1  0.000  0.000  0.000-   2 2.38   4 2.38   5 2.38   8 2.38  13 2.38  14 2.38  17 2.38  20 2.38
                            29 2.38  49 2.38  50 2.38  53 2.38
   2  0.000  0.000  0.250-   1 2.38   3 2.38   5 2.38   6 2.38  14 2.38  15 2.38  17 2.38  18 2.38
                            30 2.38  50 2.38  51 2.38  54 2.38
   3  0.000  0.000  0.500-   2 2.38   4 2.38   6 2.38   7 2.38  15 2.38  16 2.38  18 2.38  19 2.38
                            31 2.38  51 2.38  52 2.38  55 2.38
   4  0.000  0.000  0.750-   1 2.38   3 2.38   7 2.38   8 2.38  13 2.38  16 2.38  19 2.38  20 2.38
                            32 2.38  49 2.38  52 2.38  56 2.38
   5  0.000  0.250  0.000-   1 2.38   2 2.38   6 2.38   8 2.38   9 2.38  12 2.38  17 2.38  21 2.38
                            24 2.38  53 2.38  54 2.38  57 2.38
   6  0.000  0.250  0.250-   2 2.38   3 2.38   5 2.38   7 2.38   9 2.38  10 2.38  18 2.38  21 2.38
                            22 2.38  54 2.38  55 2.38  58 2.38
   7  0.000  0.250  0.500-   3 2.38   4 2.38   6 2.38   8 2.38  10 2.38  11 2.38  19 2.38  22 2.38
                            23 2.38  55 2.38  56 2.38  59 2.38
   8  0.000  0.250  0.750-   1 2.38   4 2.38   5 2.38   7 2.38  11 2.38  12 2.38  20 2.38  23 2.38
                            24 2.38  53 2.38  56 2.38  60 2.38
   9  0.000  0.500  0.000-   5 2.38   6 2.38  10 2.38  12 2.38  13 2.38  16 2.38  21 2.38  25 2.38
                            28 2.38  57 2.38  58 2.38  61 2.38
  10  0.000  0.500  0.250-   6 2.38   7 2.38   9 2.38  11 2.38  13 2.38  14 2.38  22 2.38  25 2.38
                            26 2.38  58 2.38  59 2.38  62 2.38
  11  0.000  0.500  0.500-   7 2.38   8 2.38  10 2.38  12 2.38  14 2.38  15 2.38  23 2.38  26 2.38
                            27 2.38  59 2.38  60 2.38  63 2.38
  12  0.000  0.500  0.750-   5 2.38   8 2.38   9 2.38  11 2.38  15 2.38  16 2.38  24 2.38  27 2.38
                            28 2.38  57 2.38  60 2.38  64 2.38
  13  0.000  0.750  0.000-   1 2.38   4 2.38   9 2.38  10 2.38  14 2.38  16 2.38  25 2.38  29 2.38
                            32 2.38  49 2.38  61 2.38  62 2.38
  14  0.000  0.750  0.250-   1 2.38   2 2.38  10 2.38  11 2.38  13 2.38  15 2.38  26 2.38  29 2.38
                            30 2.38  50 2.38  62 2.38  63 2.38
  15  0.000  0.750  0.500-   2 2.38   3 2.38  11 2.38  12 2.38  14 2.38  16 2.38  27 2.38  30 2.38
                            31 2.38  51 2.38  63 2.38  64 2.38
  16  0.000  0.750  0.750-   3 2.38   4 2.38   9 2.38  12 2.38  13 2.38  15 2.38  28 2.38  31 2.38
                            32 2.38  52 2.38  61 2.38  64 2.38
  17  0.250  0.000  0.000-   1 2.38   2 2.38   5 2.38  18 2.38  20 2.38  21 2.38  24 2.38  29 2.38
                            30 2.38  33 2.38  36 2.38  45 2.38
  18  0.250  0.000  0.250-   2 2.38   3 2.38   6 2.38  17 2.38  19 2.38  21 2.38  22 2.38  30 2.38
                            31 2.38  33 2.38  34 2.38  46 2.38
  19  0.250  0.000  0.500-   3 2.38   4 2.38   7 2.38  18 2.38  20 2.38  22 2.38  23 2.38  31 2.38
                            32 2.38  34 2.38  35 2.38  47 2.38
  20  0.250  0.000  0.750-   1 2.38   4 2.38   8 2.38  17 2.38  19 2.38  23 2.38  24 2.38  29 2.38
                            32 2.38  35 2.38  36 2.38  48 2.38
  21  0.250  0.250  0.000-   5 2.38   6 2.38   9 2.38  17 2.38  18 2.38  22 2.38  24 2.38  25 2.38
                            28 2.38  33 2.38  37 2.38  40 2.38
  22  0.250  0.250  0.250-   6 2.38   7 2.38  10 2.38  18 2.38  19 2.38  21 2.38  23 2.38  25 2.38
                            26 2.38  34 2.38  37 2.38  38 2.38
  23  0.250  0.250  0.500-   7 2.38   8 2.38  11 2.38  19 2.38  20 2.38  22 2.38  24 2.38  26 2.38
                            27 2.38  35 2.38  38 2.38  39 2.38
  24  0.250  0.250  0.750-   5 2.38   8 2.38  12 2.38  17 2.38  20 2.38  21 2.38  23 2.38  27 2.38
                            28 2.38  36 2.38  39 2.38  40 2.38
  25  0.250  0.500  0.000-   9 2.38  10 2.38  13 2.38  21 2.38  22 2.38  26 2.38  28 2.38  29 2.38
                            32 2.38  37 2.38  41 2.38  44 2.38
  26  0.250  0.500  0.250-  10 2.38  11 2.38  14 2.38  22 2.38  23 2.38  25 2.38  27 2.38  29 2.38
                            30 2.38  38 2.38  41 2.38  42 2.38
  27  0.250  0.500  0.500-  11 2.38  12 2.38  15 2.38  23 2.38  24 2.38  26 2.38  28 2.38  30 2.38
                            31 2.38  39 2.38  42 2.38  43 2.38
  28  0.250  0.500  0.750-   9 2.38  12 2.38  16 2.38  21 2.38  24 2.38  25 2.38  27 2.38  31 2.38
                            32 2.38  40 2.38  43 2.38  44 2.38
  29  0.250  0.750  0.000-   1 2.38  13 2.38  14 2.38  17 2.38  20 2.38  25 2.38  26 2.38  30 2.38
                            32 2.38  41 2.38  45 2.38  48 2.38
  30  0.250  0.750  0.250-   2 2.38  14 2.38  15 2.38  17 2.38  18 2.38  26 2.38  27 2.38  29 2.38
                            31 2.38  42 2.38  45 2.38  46 2.38
  31  0.250  0.750  0.500-   3 2.38  15 2.38  16 2.38  18 2.38  19 2.38  27 2.38  28 2.38  30 2.38
                            32 2.38  43 2.38  46 2.38  47 2.38
  32  0.250  0.750  0.750-   4 2.38  13 2.38  16 2.38  19 2.38  20 2.38  25 2.38  28 2.38  29 2.38
                            31 2.38  44 2.38  47 2.38  48 2.38
  33  0.500  0.000  0.000-  17 2.38  18 2.38  21 2.38  34 2.38  36 2.38  37 2.38  40 2.38  45 2.38
                            46 2.38  49 2.38  52 2.38  61 2.38
  34  0.500  0.000  0.250-  18 2.38  19 2.38  22 2.38  33 2.38  35 2.38  37 2.38  38 2.38  46 2.38
                            47 2.38  49 2.38  50 2.38  62 2.38
  35  0.500  0.000  0.500-  19 2.38  20 2.38  23 2.38  34 2.38  36 2.38  38 2.38  39 2.38  47 2.38
                            48 2.38  50 2.38  51 2.38  63 2.38
  36  0.500  0.000  0.750-  17 2.38  20 2.38  24 2.38  33 2.38  35 2.38  39 2.38  40 2.38  45 2.38
                            48 2.38  51 2.38  52 2.38  64 2.38
  37  0.500  0.250  0.000-  21 2.38  22 2.38  25 2.38  33 2.38  34 2.38  38 2.38  40 2.38  41 2.38
                            44 2.38  49 2.38  53 2.38  56 2.38
  38  0.500  0.250  0.250-  22 2.38  23 2.38  26 2.38  34 2.38  35 2.38  37 2.38  39 2.38  41 2.38
                            42 2.38  50 2.38  53 2.38  54 2.38
  39  0.500  0.250  0.500-  23 2.38  24 2.38  27 2.38  35 2.38  36 2.38  38 2.38  40 2.38  42 2.38
                            43 2.38  51 2.38  54 2.38  55 2.38
  40  0.500  0.250  0.750-  21 2.38  24 2.38  28 2.38  33 2.38  36 2.38  37 2.38  39 2.38  43 2.38
                            44 2.38  52 2.38  55 2.38  56 2.38
  41  0.500  0.500  0.000-  25 2.38  26 2.38  29 2.38  37 2.38  38 2.38  42 2.38  44 2.38  45 2.38
                            48 2.38  53 2.38  57 2.38  60 2.38
  42  0.500  0.500  0.250-  26 2.38  27 2.38  30 2.38  38 2.38  39 2.38  41 2.38  43 2.38  45 2.38
                            46 2.38  54 2.38  57 2.38  58 2.38
  43  0.500  0.500  0.500-  27 2.38  28 2.38  31 2.38  39 2.38  40 2.38  42 2.38  44 2.38  46 2.38
                            47 2.38  55 2.38  58 2.38  59 2.38
  44  0.500  0.500  0.750-  25 2.38  28 2.38  32 2.38  37 2.38  40 2.38  41 2.38  43 2.38  47 2.38
                            48 2.38  56 2.38  59 2.38  60 2.38
  45  0.500  0.750  0.000-  17 2.38  29 2.38  30 2.38  33 2.38  36 2.38  41 2.38  42 2.38  46 2.38
                            48 2.38  57 2.38  61 2.38  64 2.38
  46  0.500  0.750  0.250-  18 2.38  30 2.38  31 2.38  33 2.38  34 2.38  42 2.38  43 2.38  45 2.38
                            47 2.38  58 2.38  61 2.38  62 2.38
  47  0.500  0.750  0.500-  19 2.38  31 2.38  32 2.38  34 2.38  35 2.38  43 2.38  44 2.38  46 2.38
                            48 2.38  59 2.38  62 2.38  63 2.38
  48  0.500  0.750  0.750-  20 2.38  29 2.38  32 2.38  35 2.38  36 2.38  41 2.38  44 2.38  45 2.38
                            47 2.38  60 2.38  63 2.38  64 2.38
  49  0.750  0.000  0.000-   1 2.38   4 2.38  13 2.38  33 2.38  34 2.38  37 2.38  50 2.38  52 2.38
                            53 2.38  56 2.38  61 2.38  62 2.38
  50  0.750  0.000  0.250-   1 2.38   2 2.38  14 2.38  34 2.38  35 2.38  38 2.38  49 2.38  51 2.38
                            53 2.38  54 2.38  62 2.38  63 2.38
  51  0.750  0.000  0.500-   2 2.38   3 2.38  15 2.38  35 2.38  36 2.38  39 2.38  50 2.38  52 2.38
                            54 2.38  55 2.38  63 2.38  64 2.38
  52  0.750  0.000  0.750-   3 2.38   4 2.38  16 2.38  33 2.38  36 2.38  40 2.38  49 2.38  51 2.38
                            55 2.38  56 2.38  61 2.38  64 2.38
  53  0.750  0.250  0.000-   1 2.38   5 2.38   8 2.38  37 2.38  38 2.38  41 2.38  49 2.38  50 2.38
                            54 2.38  56 2.38  57 2.38  60 2.38
  54  0.750  0.250  0.250-   2 2.38   5 2.38   6 2.38  38 2.38  39 2.38  42 2.38  50 2.38  51 2.38
                            53 2.38  55 2.38  57 2.38  58 2.38
  55  0.750  0.250  0.500-   3 2.38   6 2.38   7 2.38  39 2.38  40 2.38  43 2.38  51 2.38  52 2.38
                            54 2.38  56 2.38  58 2.38  59 2.38
  56  0.750  0.250  0.750-   4 2.38   7 2.38   8 2.38  37 2.38  40 2.38  44 2.38  49 2.38  52 2.38
                            53 2.38  55 2.38  59 2.38  60 2.38
  57  0.750  0.500  0.000-   5 2.38   9 2.38  12 2.38  41 2.38  42 2.38  45 2.38  53 2.38  54 2.38
                            58 2.38  60 2.38  61 2.38  64 2.38
  58  0.750  0.500  0.250-   6 2.38   9 2.38  10 2.38  42 2.38  43 2.38  46 2.38  54 2.38  55 2.38
                            57 2.38  59 2.38  61 2.38  62 2.38
  59  0.750  0.500  0.500-   7 2.38  10 2.38  11 2.38  43 2.38  44 2.38  47 2.38  55 2.38  56 2.38
                            58 2.38  60 2.38  62 2.38  63 2.38
  60  0.750  0.500  0.750-   8 2.38  11 2.38  12 2.38  41 2.38  44 2.38  48 2.38  53 2.38  56 2.38
                            57 2.38  59 2.38  63 2.38  64 2.38
  61  0.750  0.750  0.000-   9 2.38  13 2.38  16 2.38  33 2.38  45 2.38  46 2.38  49 2.38  52 2.38
                            57 2.38  58 2.38  62 2.38  64 2.38
  62  0.750  0.750  0.250-  10 2.38  13 2.38  14 2.38  34 2.38  46 2.38  47 2.38  49 2.38  50 2.38
                            58 2.38  59 2.38  61 2.38  63 2.38
  63  0.750  0.750  0.500-  11 2.38  14 2.38  15 2.38  35 2.38  47 2.38  48 2.38  50 2.38  51 2.38
                            59 2.38  60 2.38  62 2.38  64 2.38
  64  0.750  0.750  0.750-  12 2.38  15 2.38  16 2.38  36 2.38  45 2.38  48 2.38  51 2.38  52 2.38
                            57 2.38  60 2.38  61 2.38  63 2.38
 
  LATTYP: Found a face centered cubic cell.
 ALAT       =    13.4655000000
  
  Lattice vectors:
  
 A1 = (   0.0000000000,   6.7327500000,   6.7327500000)
 A2 = (   6.7327500000,   0.0000000000,   6.7327500000)
 A3 = (   6.7327500000,   6.7327500000,   0.0000000000)


Analysis of symmetry for initial positions (statically):
=====================================================================
 Subroutine PRICEL returns following result:
 
  LATTYP: Found a face centered cubic cell.
 ALAT       =     3.3663750000
  
  Lattice vectors:
  
 A1 = (   0.0000000000,   1.6831875000,   1.6831875000)
 A2 = (   1.6831875000,   0.0000000000,   1.6831875000)
 A3 = (   1.6831875000,   1.6831875000,   0.0000000000)
 
  64 primitive cells build up your supercell.
 

 Routine SETGRP: Setting up the symmetry group for a 
 face centered cubic supercell.


 Subroutine GETGRP returns: Found 48 space group operations
 (whereof 48 operations were pure point group operations)
 out of a pool of 48 trial point group operations.


The static configuration has the point symmetry O_h .


Analysis of symmetry for dynamics (positions and initial velocities):
=====================================================================
 Subroutine PRICEL returns following result:
 
  LATTYP: Found a face centered cubic cell.
 ALAT       =     3.3663750000
  
  Lattice vectors:
  
 A1 = (   0.0000000000,   1.6831875000,   1.6831875000)
 A2 = (   1.6831875000,   0.0000000000,   1.6831875000)
 A3 = (   1.6831875000,   1.6831875000,   0.0000000000)
 
  64 primitive cells build up your supercell.
 

 Routine SETGRP: Setting up the symmetry group for a 
 face centered cubic supercell.


 Subroutine GETGRP returns: Found 48 space group operations
 (whereof 48 operations were pure point group operations)
 out of a pool of 48 trial point group operations.


The dynamic configuration has the point symmetry O_h .


Analysis of structural, dynamic, and magnetic symmetry:
=====================================================================
 Subroutine PRICEL returns following result:
 
  LATTYP: Found a face centered cubic cell.
 ALAT       =     3.3663750000
  
  Lattice vectors:
  
 A1 = (   0.0000000000,   1.6831875000,   1.6831875000)
 A2 = (   1.6831875000,   0.0000000000,   1.6831875000)
 A3 = (   1.6831875000,   1.6831875000,   0.0000000000)
 
  64 primitive cells build up your supercell.
 

 Routine SETGRP: Setting up the symmetry group for a 
 face centered cubic supercell.


 Subroutine GETGRP returns: Found 48 space group operations
 (whereof 48 operations were pure point group operations)
 out of a pool of 48 trial point group operations.


The magnetic configuration has the point symmetry O_h .


 Subroutine INISYM returns: Found 48 space group operations
 (whereof 48 operations are pure point group operations),
 and found    64 'primitive' translations

 
 
 KPOINTS: Zr 15x15x15                             

Automatic generation of k-mesh.
Space group operators:
 irot       det(A)        alpha          n_x          n_y          n_z        tau_x        tau_y        tau_z
    1     1.000000     0.000000     1.000000     0.000000     0.000000     0.000000     0.000000     0.000000
    2    -1.000000     0.000000     1.000000     0.000000     0.000000     0.000000     0.000000     0.000000
    3     1.000000   120.000000    -0.577350    -0.577350    -0.577350     0.000000     0.000000     0.000000
    4    -1.000000   120.000000    -0.577350    -0.577350    -0.577350     0.000000     0.000000     0.000000
    5     1.000000   120.000000     0.577350     0.577350     0.577350     0.000000     0.000000     0.000000
    6    -1.000000   120.000000     0.577350     0.577350     0.577350     0.000000     0.000000     0.000000
    7     1.000000    90.000000     0.000000     0.000000    -1.000000     0.000000     0.000000     0.000000
    8    -1.000000    90.000000     0.000000     0.000000    -1.000000     0.000000     0.000000     0.000000
    9     1.000000   180.000000     0.000000     0.707107     0.707107     0.000000     0.000000     0.000000
   10    -1.000000   180.000000     0.000000     0.707107     0.707107     0.000000     0.000000     0.000000
   11     1.000000    90.000000     0.000000     1.000000     0.000000     0.000000     0.000000     0.000000
   12    -1.000000    90.000000     0.000000     1.000000     0.000000     0.000000     0.000000     0.000000
   13     1.000000   180.000000     0.000000     0.000000     1.000000     0.000000     0.000000     0.000000
   14    -1.000000   180.000000     0.000000     0.000000     1.000000     0.000000     0.000000     0.000000
   15     1.000000   120.000000    -0.577350     0.577350     0.577350     0.000000     0.000000     0.000000
   16    -1.000000   120.000000    -0.577350     0.577350     0.577350     0.000000     0.000000     0.000000
   17     1.000000   120.000000    -0.577350     0.577350    -0.577350     0.000000     0.000000     0.000000
   18    -1.000000   120.000000    -0.577350     0.577350    -0.577350     0.000000     0.000000     0.000000
   19     1.000000    90.000000     0.000000     0.000000     1.000000     0.000000     0.000000     0.000000
   20    -1.000000    90.000000     0.000000     0.000000     1.000000     0.000000     0.000000     0.000000
   21     1.000000    90.000000    -1.000000     0.000000     0.000000     0.000000     0.000000     0.000000
   22    -1.000000    90.000000    -1.000000     0.000000     0.000000     0.000000     0.000000     0.000000
   23     1.000000   180.000000     0.707107     0.000000     0.707107     0.000000     0.000000     0.000000
   24    -1.000000   180.000000     0.707107     0.000000     0.707107     0.000000     0.000000     0.000000
   25     1.000000   120.000000     0.577350    -0.577350     0.577350     0.000000     0.000000     0.000000
   26    -1.000000   120.000000     0.577350    -0.577350     0.577350     0.000000     0.000000     0.000000
   27     1.000000   120.000000    -0.577350    -0.577350     0.577350     0.000000     0.000000     0.000000
   28    -1.000000   120.000000    -0.577350    -0.577350     0.577350     0.000000     0.000000     0.000000
   29     1.000000   180.000000     1.000000     0.000000     0.000000     0.000000     0.000000     0.000000
   30    -1.000000   180.000000     1.000000     0.000000     0.000000     0.000000     0.000000     0.000000
   31     1.000000    90.000000     0.000000    -1.000000     0.000000     0.000000     0.000000     0.000000
   32    -1.000000    90.000000     0.000000    -1.000000     0.000000     0.000000     0.000000     0.000000
   33     1.000000   180.000000     0.707107     0.707107     0.000000     0.000000     0.000000     0.000000
   34    -1.000000   180.000000     0.707107     0.707107     0.000000     0.000000     0.000000     0.000000
   35     1.000000    90.000000     1.000000     0.000000     0.000000     0.000000     0.000000     0.000000
   36    -1.000000    90.000000     1.000000     0.000000     0.000000     0.000000     0.000000     0.000000
   37     1.000000   120.000000     0.577350    -0.577350    -0.577350     0.000000     0.000000     0.000000
   38    -1.000000   120.000000     0.577350    -0.577350    -0.577350     0.000000     0.000000     0.000000
   39     1.000000   180.000000     0.000000     1.000000     0.000000     0.000000     0.000000     0.000000
   40    -1.000000   180.000000     0.000000     1.000000     0.000000     0.000000     0.000000     0.000000
   41     1.000000   120.000000     0.577350     0.577350    -0.577350     0.000000     0.000000     0.000000
   42    -1.000000   120.000000     0.577350     0.577350    -0.577350     0.000000     0.000000     0.000000
   43     1.000000   180.000000     0.000000    -0.707107     0.707107     0.000000     0.000000     0.000000
   44    -1.000000   180.000000     0.000000    -0.707107     0.707107     0.000000     0.000000     0.000000
   45     1.000000   180.000000     0.707107    -0.707107     0.000000     0.000000     0.000000     0.000000
   46    -1.000000   180.000000     0.707107    -0.707107     0.000000     0.000000     0.000000     0.000000
   47     1.000000   180.000000     0.707107     0.000000    -0.707107     0.000000     0.000000     0.000000
   48    -1.000000   180.000000     0.707107     0.000000    -0.707107     0.000000     0.000000     0.000000
 
 Subroutine IBZKPT returns following result:
 ===========================================
 
 Found      4 irreducible k-points:
 
 Following reciprocal coordinates:
            Coordinates               Weight
  0.000000  0.000000  0.000000      1.000000
  0.333333  0.000000  0.000000      8.000000
  0.333333  0.333333  0.000000      6.000000
 -0.333333  0.333333  0.000000     12.000000
 
 Following cartesian coordinates:
            Coordinates               Weight
  0.000000  0.000000  0.000000      1.000000
 -0.024755  0.024755  0.024755      8.000000
  0.000000  0.000000  0.049509      6.000000
  0.049509 -0.049509  0.000000     12.000000
 
 
 Subroutine IBZKPT_HF returns following result:
 ==============================================
 
 Found     27 k-points in 1st BZ
 the following     27 k-points will be used (e.g. in the exchange kernel)
 Following reciprocal coordinates:   # in IRBZ
  0.000000  0.000000  0.000000    0.03703704   1 t-inv F
  0.333333  0.000000  0.000000    0.03703704   2 t-inv F
  0.333333  0.333333  0.000000    0.03703704   3 t-inv F
 -0.333333  0.333333  0.000000    0.03703704   4 t-inv F
 -0.333333  0.000000  0.000000    0.03703704   2 t-inv F
  0.000000  0.333333  0.000000    0.03703704   2 t-inv F
  0.000000 -0.333333  0.000000    0.03703704   2 t-inv F
  0.000000  0.000000  0.333333    0.03703704   2 t-inv F
  0.000000  0.000000 -0.333333    0.03703704   2 t-inv F
  0.333333  0.333333  0.333333    0.03703704   2 t-inv F
 -0.333333 -0.333333 -0.333333    0.03703704   2 t-inv F
 -0.333333 -0.333333  0.000000    0.03703704   3 t-inv F
  0.000000  0.333333  0.333333    0.03703704   3 t-inv F
  0.000000 -0.333333 -0.333333    0.03703704   3 t-inv F
  0.333333  0.000000  0.333333    0.03703704   3 t-inv F
 -0.333333  0.000000 -0.333333    0.03703704   3 t-inv F
  0.333333 -0.333333  0.000000    0.03703704   4 t-inv F
  0.000000 -0.333333  0.333333    0.03703704   4 t-inv F
  0.000000  0.333333 -0.333333    0.03703704   4 t-inv F
  0.333333  0.000000 -0.333333    0.03703704   4 t-inv F
 -0.333333  0.000000  0.333333    0.03703704   4 t-inv F
  0.333333  0.333333  0.666667    0.03703704   4 t-inv F
 -0.333333 -0.333333 -0.666667    0.03703704   4 t-inv F
 -0.333333 -0.666667 -0.333333    0.03703704   4 t-inv F
  0.333333  0.666667  0.333333    0.03703704   4 t-inv F
 -0.666667 -0.333333 -0.333333    0.03703704   4 t-inv F
  0.666667  0.333333  0.333333    0.03703704   4 t-inv F


--------------------------------------------------------------------------------------------------------




 Dimension of arrays:
   k-points           NKPTS =      4   k-points in BZ     NKDIM =      4   number of bands    NBANDS=    646
   number of dos      NEDOS =    301   number of ions     NIONS =     64
   non local maximal  LDIM  =      6   non local SUM 2l+1 LMDIM =     18
   total plane-waves  NPLWV = 216000
   max r-space proj   IRMAX =   4470   max aug-charges    IRDMAX=   8012
   dimension x,y,z NGX =    60 NGY =   60 NGZ =   60
   dimension x,y,z NGXF=   120 NGYF=  120 NGZF=  120
   support grid    NGXF=   120 NGYF=  120 NGZF=  120
   ions per type =              64
 NGX,Y,Z   is equivalent  to a cutoff of  10.48, 10.48, 10.48 a.u.
 NGXF,Y,Z  is equivalent  to a cutoff of  20.95, 20.95, 20.95 a.u.


 I would recommend the setting:
   dimension x,y,z NGX =    60 NGY =   60 NGZ =   60
 SYSTEM =  phonon of Zr bcc - omiga                
 POSCAR =  Supercell by Yi Wang                    

 Startparameter for this run:
   NWRITE =      0    write-flag & timer
   PREC   = a         normal or accurate (medium, high low for compatibility)
   ISTART =      0    job   : 0-new  1-cont  2-samecut
   ICHARG =      2    charge: 1-file 2-atom 10-const
   ISPIN  =      2    spin polarized calculation?
   LNONCOLLINEAR =      F non collinear calculations
   LSORBIT =      F    spin-orbit coupling
   INIWAV =      1    electr: 0-lowe 1-rand  2-diag
   LASPH  =      F    aspherical Exc in radial PAW
   METAGGA=      F    non-selfconsistent MetaGGA calc.

 Electronic Relaxation 1
   ENCUT  =  367.9 eV  27.04 Ry    5.20 a.u.  14.89 14.89 14.89*2*pi/ulx,y,z
   ENINI  =  367.9     initial cutoff
   ENAUG  =  703.4 eV  augmentation charge cutoff
   NELM   =     60;   NELMIN=  2; NELMDL=  0     # of ELM steps 
   EDIFF  = 0.1E-05   stopping-criterion for ELM
   LREAL  =      T    real-space projection
   NLSPLINE    = F    spline interpolate recip. space projectors
   LCOMPAT=      F    compatible to vasp.4.4
   GGA_COMPAT  = T    GGA compatible to vasp.4.4-vasp.4.6
   LMAXPAW     = -100 max onsite density
   LMAXMIX     =    2 max onsite mixed and CHGCAR
   VOSKOWN=      0    Vosko Wilk Nusair interpolation
   ROPT   =   -0.00025
 Ionic relaxation
   EDIFFG = 0.1E-04   stopping-criterion for IOM
   NSW    =    805    number of steps for IOM
   NBLOCK =      1;   KBLOCK =      1    inner block; outer block 
   IBRION =      6    ionic relax: 0-MD 1-quasi-New 2-CG
   NFREE  =      4    steps in history (QN), initial steepest desc. (CG)
   ISIF   =      2    stress and relaxation
   IWAVPR =     11    prediction:  0-non 1-charg 2-wave 3-comb
   ISYM   =      2    0-nonsym 1-usesym 2-fastsym
   LCORR  =      T    Harris-Foulkes like correction to forces

   POTIM  = 0.5000    time-step for ionic-motion
   TEIN   =    0.0    initial temperature
   TEBEG  =    0.0;   TEEND  =   0.0 temperature during run
   SMASS  =  -3.00    Nose mass-parameter (am)
   estimated Nose-frequenzy (Omega)   =  0.10E-29 period in steps =****** mass=  -0.207E-26a.u.
   SCALEE = 1.0000    scale energy and forces
   NPACO  =    256;   APACO  = 16.0  distance and # of slots for P.C.
   PSTRESS=    0.0 pullay stress

  Mass of Ions in am
   POMASS =  58.69
  Ionic Valenz
   ZVAL   =  16.00
  Atomic Wigner-Seitz radii
   RWIGS  =  -1.00
  virtual crystal weights 
   VCA    =   1.00
   NELECT =    1024.0000    total number of electrons
   NUPDOWN=      -1.0000    fix difference up-down

 DOS related values:
   EMIN   =  10.00;   EMAX   =-10.00  energy-range for DOS
   EFERMI =   0.00
   ISMEAR =     1;   SIGMA  =   0.20  broadening in eV -4-tet -1-fermi 0-gaus

 Electronic relaxation 2 (details)
   IALGO  =     38    algorithm
   LDIAG  =      T    sub-space diagonalisation (order eigenvalues)
   LSUBROT=      F    optimize rotation matrix (better conditioning)
   TURBO    =      0    0=normal 1=particle mesh
   IRESTART =      0    0=no restart 2=restart with 2 vectors
   NREBOOT  =      0    no. of reboots
   NMIN     =      0    reboot dimension
   EREF     =   0.00    reference energy to select bands
   IMIX   =      4    mixing-type and parameters
     AMIX     =   0.40;   BMIX     =  1.00
     AMIX_MAG =   1.60;   BMIX_MAG =  1.00
     AMIN     =   0.10
     WC   =   100.;   INIMIX=   1;  MIXPRE=   1;  MAXMIX= -45

 Intra band minimization:
   WEIMIN = 0.0010     energy-eigenvalue tresh-hold
   EBREAK =  0.39E-09  absolut break condition
   DEPER  =   0.30     relativ break condition  

   TIME   =   0.40     timestep for ELM

  volume/ion in A,a.u.               =       9.54        64.36
  Fermi-wavevector in a.u.,A,eV,Ry     =   1.945236  3.675963 51.483679  3.783944
  Thomas-Fermi vector in A             =   2.973994
 
 Write flags
   LWAVE  =      T    write WAVECAR
   LCHARG =      T    write CHGCAR
   LVTOT  =      F    write LOCPOT, total local potential
   LVHAR  =      F    write LOCPOT, Hartree potential only
   LELF   =      F    write electronic localiz. function (ELF)
   LORBIT =      0    0 simple, 1 ext, 2 COOP (PROOUT)


 Dipole corrections
   LMONO  =      F    monopole corrections only (constant potential shift)
   LDIPOL =      F    correct potential (dipole corrections)
   IDIPOL =      0    1-x, 2-y, 3-z, 4-all directions 
   EPSILON=  1.0000000 bulk dielectric constant

 Exchange correlation treatment:
   GGA     =    --    GGA type
   LEXCH   =     8    internal setting for exchange type
   VOSKOWN=      0    Vosko Wilk Nusair interpolation
   LHFCALC =     F    Hartree Fock is set to
   LHFONE  =     F    Hartree Fock one center treatment
   AEXX    =    0.0000 exact exchange contribution

 Linear response parameters
   LEPSILON=     F    determine dielectric tensor
   LRPA    =     F    only Hartree local field effects (RPA)
   LNABLA  =     F    use nabla operator in PAW spheres
   LVEL    =     F    velocity operator in full k-point grid
   LINTERFAST=   F  fast interpolation
   KINTER  =     0    interpolate to denser k-point grid
   CSHIFT  =0.1000    complex shift for real part using Kramers Kronig
   OMEGAMAX=  -1.0    maximum frequency
   DEG_THRESHOLD= 0.2000000E-02 threshold for treating states as degnerate
   RTIME   =    0.100 relaxation time in fs

 Orbital magnetization related:
   ORBITALMAG=     F  switch on orbital magnetization
   LCHIMAG   =     F  perturbation theory with respect to B field
   DQ        =  0.001000  dq finite difference perturbation B field



--------------------------------------------------------------------------------------------------------


 finite differences with symmetry
 charge density and potential will be updated during run
 spin polarized calculation
 Variant of blocked Davidson
 Davidson routine will perform the subspace rotation
 perform sub-space diagonalisation
    after iterative eigenvector-optimisation
 modified Broyden-mixing scheme, WC =      100.0
 initial mixing is a Kerker type mixing with AMIX =  0.4000 and BMIX =      1.0000
 Hartree-type preconditioning will be used
 using additional bands          134
 real space projection scheme for non local part
 use partial core corrections
 calculate Harris-corrections to forces 
   (improved forces if not selfconsistent)
 use gradient corrections 
 use of overlap-Matrix (Vanderbilt PP)
 Methfessel and Paxton  Order N= 1 SIGMA  =   0.20


--------------------------------------------------------------------------------------------------------


  energy-cutoff  :      367.94
  volume of cell :      610.39
      direct lattice vectors                 reciprocal lattice vectors
     0.000000000  6.732750000  6.732750000    -0.074263859  0.074263859  0.074263859
     6.732750000  0.000000000  6.732750000     0.074263859 -0.074263859  0.074263859
     6.732750000  6.732750000  0.000000000     0.074263859  0.074263859 -0.074263859

  length of vectors
     9.521546362  9.521546362  9.521546362     0.128628778  0.128628778  0.128628778


 
 k-points in units of 2pi/SCALE and weight: Zr 15x15x15                             
   0.00000000  0.00000000  0.00000000       0.037
  -0.02475462  0.02475462  0.02475462       0.296
   0.00000000  0.00000000  0.04950924       0.222
   0.04950924 -0.04950924  0.00000000       0.444
 
 k-points in reciprocal lattice and weights: Zr 15x15x15                             
   0.00000000  0.00000000  0.00000000       0.037
   0.33333333  0.00000000  0.00000000       0.296
   0.33333333  0.33333333  0.00000000       0.222
  -0.33333333  0.33333333  0.00000000       0.444
 
 position of ions in fractional coordinates (direct lattice) 
   0.00000000  0.00000000  0.00000000
   0.00000000  0.00000000  0.25000000
   0.00000000  0.00000000  0.50000000
   0.00000000  0.00000000  0.75000000
   0.00000000  0.25000000  0.00000000
   0.00000000  0.25000000  0.25000000
   0.00000000  0.25000000  0.50000000
   0.00000000  0.25000000  0.75000000
   0.00000000  0.50000000  0.00000000
   0.00000000  0.50000000  0.25000000
   0.00000000  0.50000000  0.50000000
   0.00000000  0.50000000  0.75000000
   0.00000000  0.75000000  0.00000000
   0.00000000  0.75000000  0.25000000
   0.00000000  0.75000000  0.50000000
   0.00000000  0.75000000  0.75000000
   0.25000000  0.00000000  0.00000000
   0.25000000  0.00000000  0.25000000
   0.25000000  0.00000000  0.50000000
   0.25000000  0.00000000  0.75000000
   0.25000000  0.25000000  0.00000000
   0.25000000  0.25000000  0.25000000
   0.25000000  0.25000000  0.50000000
   0.25000000  0.25000000  0.75000000
   0.25000000  0.50000000  0.00000000
   0.25000000  0.50000000  0.25000000
   0.25000000  0.50000000  0.50000000
   0.25000000  0.50000000  0.75000000
   0.25000000  0.75000000  0.00000000
   0.25000000  0.75000000  0.25000000
   0.25000000  0.75000000  0.50000000
   0.25000000  0.75000000  0.75000000
   0.50000000  0.00000000  0.00000000
   0.50000000  0.00000000  0.25000000
   0.50000000  0.00000000  0.50000000
   0.50000000  0.00000000  0.75000000
   0.50000000  0.25000000  0.00000000
   0.50000000  0.25000000  0.25000000
   0.50000000  0.25000000  0.50000000
   0.50000000  0.25000000  0.75000000
   0.50000000  0.50000000  0.00000000
   0.50000000  0.50000000  0.25000000
   0.50000000  0.50000000  0.50000000
   0.50000000  0.50000000  0.75000000
   0.50000000  0.75000000  0.00000000
   0.50000000  0.75000000  0.25000000
   0.50000000  0.75000000  0.50000000
   0.50000000  0.75000000  0.75000000
   0.75000000  0.00000000  0.00000000
   0.75000000  0.00000000  0.25000000
   0.75000000  0.00000000  0.50000000
   0.75000000  0.00000000  0.75000000
   0.75000000  0.25000000  0.00000000
   0.75000000  0.25000000  0.25000000
   0.75000000  0.25000000  0.50000000
   0.75000000  0.25000000  0.75000000
   0.75000000  0.50000000  0.00000000
   0.75000000  0.50000000  0.25000000
   0.75000000  0.50000000  0.50000000
   0.75000000  0.50000000  0.75000000
   0.75000000  0.75000000  0.00000000
   0.75000000  0.75000000  0.25000000
   0.75000000  0.75000000  0.50000000
   0.75000000  0.75000000  0.75000000
 
 position of ions in cartesian coordinates  (Angst):
   0.00000000  0.00000000  0.00000000
   1.68318750  1.68318750  0.00000000
   3.36637500  3.36637500  0.00000000
   5.04956250  5.04956250  0.00000000
   1.68318750  0.00000000  1.68318750
   3.36637500  1.68318750  1.68318750
   5.04956250  3.36637500  1.68318750
   6.73275000  5.04956250  1.68318750
   3.36637500  0.00000000  3.36637500
   5.04956250  1.68318750  3.36637500
   6.73275000  3.36637500  3.36637500
   8.41593750  5.04956250  3.36637500
   5.04956250  0.00000000  5.04956250
   6.73275000  1.68318750  5.04956250
   8.41593750  3.36637500  5.04956250
  10.09912500  5.04956250  5.04956250
   0.00000000  1.68318750  1.68318750
   1.68318750  3.36637500  1.68318750
   3.36637500  5.04956250  1.68318750
   5.04956250  6.73275000  1.68318750
   1.68318750  1.68318750  3.36637500
   3.36637500  3.36637500  3.36637500
   5.04956250  5.04956250  3.36637500
   6.73275000  6.73275000  3.36637500
   3.36637500  1.68318750  5.04956250
   5.04956250  3.36637500  5.04956250
   6.73275000  5.04956250  5.04956250
   8.41593750  6.73275000  5.04956250
   5.04956250  1.68318750  6.73275000
   6.73275000  3.36637500  6.73275000
   8.41593750  5.04956250  6.73275000
  10.09912500  6.73275000  6.73275000
   0.00000000  3.36637500  3.36637500
   1.68318750  5.04956250  3.36637500
   3.36637500  6.73275000  3.36637500
   5.04956250  8.41593750  3.36637500
   1.68318750  3.36637500  5.04956250
   3.36637500  5.04956250  5.04956250
   5.04956250  6.73275000  5.04956250
   6.73275000  8.41593750  5.04956250
   3.36637500  3.36637500  6.73275000
   5.04956250  5.04956250  6.73275000
   6.73275000  6.73275000  6.73275000
   8.41593750  8.41593750  6.73275000
   5.04956250  3.36637500  8.41593750
   6.73275000  5.04956250  8.41593750
   8.41593750  6.73275000  8.41593750
  10.09912500  8.41593750  8.41593750
   0.00000000  5.04956250  5.04956250
   1.68318750  6.73275000  5.04956250
   3.36637500  8.41593750  5.04956250
   5.04956250 10.09912500  5.04956250
   1.68318750  5.04956250  6.73275000
   3.36637500  6.73275000  6.73275000
   5.04956250  8.41593750  6.73275000
   6.73275000 10.09912500  6.73275000
   3.36637500  5.04956250  8.41593750
   5.04956250  6.73275000  8.41593750
   6.73275000  8.41593750  8.41593750
   8.41593750 10.09912500  8.41593750
   5.04956250  5.04956250 10.09912500
   6.73275000  6.73275000 10.09912500
   8.41593750  8.41593750 10.09912500
  10.09912500 10.09912500 10.09912500
 


--------------------------------------------------------------------------------------------------------


 k-point  1 :   0.0000 0.0000 0.0000  plane waves:    9841
 k-point  2 :   0.3333 0.0000 0.0000  plane waves:    9783
 k-point  3 :   0.3333 0.3333 0.0000  plane waves:    9793
 k-point  4 :  -0.3333 0.3333 0.0000  plane waves:    9751

 maximum and minimum number of plane-waves per node :      9841     9751

 maximum number of plane-waves:      9841
 maximum index in each direction: 
   IXMAX=   15   IYMAX=   14   IZMAX=   14
   IXMIN=  -15   IYMIN=  -15   IZMIN=  -14

 WARNING: aliasing errors must be expected set NGX to  62 to avoid them
 NGY is ok and might be reduce to  60
 NGZ is ok and might be reduce to  58
 aliasing errors are usually negligible using standard VASP settings
 and one can safely disregard these warnings

 serial   3D FFT for wavefunctions
 parallel 3D FFT for charge:
    minimum data exchange during FFTs selected (reduces bandwidth)


 total amount of memory used by VASP on root node  1191641. kBytes
========================================================================

   base      :      30000. kBytes
   nonlr-proj:      47454. kBytes
   fftplans  :      59784. kBytes
   grid      :     143424. kBytes
   one-center:       1990. kBytes
   wavefun   :     908989. kBytes
 
     INWAV:  cpu time    0.0000: real time    0.0000
 Broyden mixing: mesh for mixing (old mesh)
   NGX = 29   NGY = 29   NGZ = 29
  (NGX  =120   NGY  =120   NGZ  =120)
  gives a total of  24389 points

 initial charge density was supplied:
 charge density of overlapping atoms calculated
 number of electron    1024.0000000 magnetization      64.0000000
 keeping initial charge density in first step


--------------------------------------------------------------------------------------------------------


 Maximum index for non-local projection operator         4213
 Maximum index for augmentation-charges         7635 (set IRDMAX)


--------------------------------------------------------------------------------------------------------


 First call to EWALD:  gamma=   0.209
 Maximum number of real-space cells 3x 3x 3
 Maximum number of reciprocal cells 3x 3x 3

 FEWALD executed in parallel
    FEWALD:  cpu time    0.0220: real time    0.0220


----------------------------------------- Iteration    1(   1)  ---------------------------------------


    POTLOK:  cpu time    1.7167: real time    1.7162
    SETDIJ:  cpu time    0.3739: real time    0.3736
     EDDAV:  cpu time  352.4104: real time  352.1195
       DOS:  cpu time    0.0130: real time    0.0129
    --------------------------------------------
      LOOP:  cpu time  354.5171: real time  354.2253

 eigenvalue-minimisations  : 11784
 total energy-change (2. order) : 0.1434743E+05  (-0.5230322E+05)
 number of electron    1024.0000000 magnetization      64.0000000
 augmentation part     1024.0000000 magnetization      64.0000000

 Free energy of the ion-electron system (eV)
  ---------------------------------------------------
  alpha Z        PSCENC =     11304.57052840
  Ewald energy   TEWEN  =   -160660.78111336
  -Hartree energ DENC   =    -57619.62050546
  -exchange      EXHF   =         0.00000000
  -V(xc)+E(xc)   XCENC  =      5752.46845394
  PAW double counting   =    172361.15642774  -181272.45834873
  entropy T*S    EENTRO =        -0.00165726
  eigenvalues    EBANDS =       468.80666004
  atomic energy  EATOM  =    224013.29143063
  Solvation  Ediel_sol  =         0.00000000
  ---------------------------------------------------
  free energy    TOTEN  =     14347.43187594 eV

  energy without entropy =    14347.43353321  energy(sigma->0) =    14347.43242836


--------------------------------------------------------------------------------------------------------




----------------------------------------- Iteration    1(   2)  ---------------------------------------


     EDDAV:  cpu time  317.3828: real time  317.1195
       DOS:  cpu time    0.0140: real time    0.0137
    --------------------------------------------
      LOOP:  cpu time  317.3977: real time  317.1338

 eigenvalue-minimisations  : 10336
 total energy-change (2. order) :-0.1340314E+05  (-0.1295690E+05)
 number of electron    1024.0000000 magnetization      64.0000000
 augmentation part     1024.0000000 magnetization      64.0000000

 Free energy of the ion-electron system (eV)
  ---------------------------------------------------
  alpha Z        PSCENC =     11304.57052840
  Ewald energy   TEWEN  =   -160660.78111336
  -Hartree energ DENC   =    -57619.62050546
  -exchange      EXHF   =         0.00000000
  -V(xc)+E(xc)   XCENC  =      5752.46845394
  PAW double counting   =    172361.15642774  -181272.45834873
  entropy T*S    EENTRO =         0.01377114
  eigenvalues    EBANDS =    -12934.34991066
  atomic energy  EATOM  =    224013.29143063
  Solvation  Ediel_sol  =         0.00000000
  ---------------------------------------------------
  free energy    TOTEN  =       944.29073364 eV

  energy without entropy =      944.27696251  energy(sigma->0) =      944.28614327


--------------------------------------------------------------------------------------------------------




----------------------------------------- Iteration    1(   3)  ---------------------------------------


     EDDAV:  cpu time  323.2339: real time  322.9657
       DOS:  cpu time    0.0140: real time    0.0141
    --------------------------------------------
      LOOP:  cpu time  323.2479: real time  322.9804

 eigenvalue-minimisations  : 10608
 total energy-change (2. order) :-0.1298244E+04  (-0.1078517E+04)
 number of electron    1024.0000000 magnetization      64.0000000
 augmentation part     1024.0000000 magnetization      64.0000000

 Free energy of the ion-electron system (eV)
  ---------------------------------------------------
  alpha Z        PSCENC =     11304.57052840
  Ewald energy   TEWEN  =   -160660.78111336
  -Hartree energ DENC   =    -57619.62050546
  -exchange      EXHF   =         0.00000000
  -V(xc)+E(xc)   XCENC  =      5752.46845394
  PAW double counting   =    172361.15642774  -181272.45834873
  entropy T*S    EENTRO =        -0.00559665
  eigenvalues    EBANDS =    -14232.57486382
  atomic energy  EATOM  =    224013.29143063
  Solvation  Ediel_sol  =         0.00000000
  ---------------------------------------------------
  free energy    TOTEN  =      -353.95358730 eV

  energy without entropy =     -353.94799065  energy(sigma->0) =     -353.95172175


--------------------------------------------------------------------------------------------------------




----------------------------------------- Iteration    1(   4)  ---------------------------------------


     EDDAV:  cpu time  334.7471: real time  334.4707
       DOS:  cpu time    0.0160: real time    0.0144
    --------------------------------------------
      LOOP:  cpu time  334.7641: real time  334.4856

 eigenvalue-minimisations  : 11104
 total energy-change (2. order) :-0.6554436E+02  (-0.6424335E+02)
 number of electron    1024.0000000 magnetization      64.0000000
 augmentation part     1024.0000000 magnetization      64.0000000

 Free energy of the ion-electron system (eV)
  ---------------------------------------------------
  alpha Z        PSCENC =     11304.57052840
  Ewald energy   TEWEN  =   -160660.78111336
  -Hartree energ DENC   =    -57619.62050546
  -exchange      EXHF   =         0.00000000
  -V(xc)+E(xc)   XCENC  =      5752.46845394
  PAW double counting   =    172361.15642774  -181272.45834873
  entropy T*S    EENTRO =         0.04921531
  eigenvalues    EBANDS =    -14298.17403401
  atomic energy  EATOM  =    224013.29143063
  Solvation  Ediel_sol  =         0.00000000
  ---------------------------------------------------
  free energy    TOTEN  =      -419.49794553 eV

  energy without entropy =     -419.54716084  energy(sigma->0) =     -419.51435063


--------------------------------------------------------------------------------------------------------




----------------------------------------- Iteration    1(   5)  ---------------------------------------


     EDDAV:  cpu time  333.4613: real time  333.1860
       DOS:  cpu time    0.0150: real time    0.0144
    CHARGE:  cpu time   13.8439: real time   13.8331
    MIXING:  cpu time    0.0350: real time    0.0350
    --------------------------------------------
      LOOP:  cpu time  347.3552: real time  347.0691

 eigenvalue-minimisations  : 11056
 total energy-change (2. order) :-0.9532774E+00  (-0.9528051E+00)
 number of electron    1024.0005018 magnetization      57.1312501
 augmentation part      575.1658146 magnetization      45.7838732

 Broyden mixing:
  rms(total) = 0.66366E+01    rms(broyden)= 0.66282E+01
  rms(prec ) = 0.91082E+01
  weight for this iteration     100.00

 Free energy of the ion-electron system (eV)
  ---------------------------------------------------
  alpha Z        PSCENC =     11304.57052840
  Ewald energy   TEWEN  =   -160660.78111336
  -Hartree energ DENC   =    -57619.62050546
  -exchange      EXHF   =         0.00000000
  -V(xc)+E(xc)   XCENC  =      5752.46845394
  PAW double counting   =    172361.15642774  -181272.45834873
  entropy T*S    EENTRO =         0.04983185
  eigenvalues    EBANDS =    -14299.12792799
  atomic energy  EATOM  =    224013.29143063
  Solvation  Ediel_sol  =         0.00000000
  ---------------------------------------------------
  free energy    TOTEN  =      -420.45122297 eV

  energy without entropy =     -420.50105482  energy(sigma->0) =     -420.46783358


--------------------------------------------------------------------------------------------------------




----------------------------------------- Iteration    1(   6)  ---------------------------------------


    POTLOK:  cpu time    1.7137: real time    1.7113
    SETDIJ:  cpu time    0.3729: real time    0.3737
     EDDAV:  cpu time  328.4231: real time  328.1510
       DOS:  cpu time    0.0140: real time    0.0147
    CHARGE:  cpu time   14.3168: real time   14.3036
    MIXING:  cpu time    0.0370: real time    0.0372
    --------------------------------------------
      LOOP:  cpu time  344.8786: real time  344.5922

 eigenvalue-minimisations  : 10830
 total energy-change (2. order) : 0.4432224E+02  (-0.4897161E+02)
 number of electron    1024.0005465 magnetization      49.4168481
 augmentation part      622.8789039 magnetization      44.1728208

 Broyden mixing:
  rms(total) = 0.37966E+01    rms(broyden)= 0.37955E+01
  rms(prec ) = 0.47254E+01
  weight for this iteration     100.00

 eigenvalues of (default mixing * dielectric matrix)
  average eigenvalue GAMMA=   0.6151
  0.6151

 Free energy of the ion-electron system (eV)
  ---------------------------------------------------
  alpha Z        PSCENC =     11304.57052840
  Ewald energy   TEWEN  =   -160660.78111336
  -Hartree energ DENC   =    -54673.63913438
  -exchange      EXHF   =         0.00000000
  -V(xc)+E(xc)   XCENC  =      5636.96870377
  PAW double counting   =    169498.23625587  -178129.99808682
  entropy T*S    EENTRO =        -0.29521681
  eigenvalues    EBANDS =    -17364.48234873
  atomic energy  EATOM  =    224013.29143063
  Solvation  Ediel_sol  =         0.00000000
  ---------------------------------------------------
  free energy    TOTEN  =      -376.12898143 eV

  energy without entropy =     -375.83376462  energy(sigma->0) =     -376.03057582


--------------------------------------------------------------------------------------------------------




----------------------------------------- Iteration    1(   7)  ---------------------------------------


    POTLOK:  cpu time    1.7077: real time    1.7070
    SETDIJ:  cpu time    0.3749: real time    0.3742
     EDDAV:  cpu time  328.4811: real time  328.2095
       DOS:  cpu time    0.0140: real time    0.0144
    CHARGE:  cpu time   14.3638: real time   14.3515
    MIXING:  cpu time    0.0380: real time    0.0388
    --------------------------------------------
      LOOP:  cpu time  344.9826: real time  344.6962

 eigenvalue-minimisations  : 10840
 total energy-change (2. order) : 0.1706090E+02  (-0.7506492E+01)
 number of electron    1024.0005300 magnetization      39.8497776
 augmentation part      605.4805437 magnetization      32.9226592

 Broyden mixing:
  rms(total) = 0.62126E+00    rms(broyden)= 0.62039E+00
  rms(prec ) = 0.74831E+00
  weight for this iteration     100.00

 eigenvalues of (default mixing * dielectric matrix)
  average eigenvalue GAMMA=   0.9901
  1.3404  0.6398

 Free energy of the ion-electron system (eV)
  ---------------------------------------------------
  alpha Z        PSCENC =     11304.57052840
  Ewald energy   TEWEN  =   -160660.78111336
  -Hartree energ DENC   =    -55540.40252530
  -exchange      EXHF   =         0.00000000
  -V(xc)+E(xc)   XCENC  =      5669.81766233
  PAW double counting   =    171936.61859088  -180828.89403235
  entropy T*S    EENTRO =        -0.25834163
  eigenvalues    EBANDS =    -16253.03028441
  atomic energy  EATOM  =    224013.29143063
  Solvation  Ediel_sol  =         0.00000000
  ---------------------------------------------------
  free energy    TOTEN  =      -359.06808482 eV

  energy without entropy =     -358.80974319  energy(sigma->0) =     -358.98197094


--------------------------------------------------------------------------------------------------------




----------------------------------------- Iteration    1(   8)  ---------------------------------------


    POTLOK:  cpu time    1.7057: real time    1.7053
    SETDIJ:  cpu time    0.3749: real time    0.3744
     EDDAV:  cpu time  329.0790: real time  328.8077
       DOS:  cpu time    0.0150: real time    0.0147
    CHARGE:  cpu time   14.3138: real time   14.3012
    MIXING:  cpu time    0.0410: real time    0.0406
    --------------------------------------------
      LOOP:  cpu time  345.5315: real time  345.2447

 eigenvalue-minimisations  : 10872
 total energy-change (2. order) : 0.1026684E+00  (-0.7170039E-01)
 number of electron    1024.0005302 magnetization      35.3525469
 augmentation part      605.5664865 magnetization      29.9852820

 Broyden mixing:
  rms(total) = 0.24942E+00    rms(broyden)= 0.24932E+00
  rms(prec ) = 0.30601E+00
  weight for this iteration     100.00

 eigenvalues of (default mixing * dielectric matrix)
  average eigenvalue GAMMA=   1.2247
  0.6558  0.8213  2.1969

 Free energy of the ion-electron system (eV)
  ---------------------------------------------------
  alpha Z        PSCENC =     11304.57052840
  Ewald energy   TEWEN  =   -160660.78111336
  -Hartree energ DENC   =    -55363.85830496
  -exchange      EXHF   =         0.00000000
  -V(xc)+E(xc)   XCENC  =      5662.97737891
  PAW double counting   =    173374.72390322  -182398.37189319
  entropy T*S    EENTRO =        -0.27300324
  eigenvalues    EBANDS =    -16291.24434279
  atomic energy  EATOM  =    224013.29143063
  Solvation  Ediel_sol  =         0.00000000
  ---------------------------------------------------
  free energy    TOTEN  =      -358.96541637 eV

  energy without entropy =     -358.69241313  energy(sigma->0) =     -358.87441529


--------------------------------------------------------------------------------------------------------




----------------------------------------- Iteration    1(   9)  ---------------------------------------


    POTLOK:  cpu time    1.6847: real time    1.6841
    SETDIJ:  cpu time    0.3749: real time    0.3741
     EDDAV:  cpu time  353.0783: real time  352.7861
       DOS:  cpu time    0.0150: real time    0.0150
    CHARGE:  cpu time   14.5288: real time   14.5166
    MIXING:  cpu time    0.0420: real time    0.0426
    --------------------------------------------
      LOOP:  cpu time  369.7248: real time  369.4193

 eigenvalue-minimisations  : 11888
 total energy-change (2. order) : 0.2285663E-01  (-0.5997946E-02)
 number of electron    1024.0005307 magnetization      35.0477047
 augmentation part      606.0505805 magnetization      30.4048927

 Broyden mixing:
  rms(total) = 0.54465E-01    rms(broyden)= 0.54389E-01
  rms(prec ) = 0.55470E-01
  weight for this iteration     100.00

 eigenvalues of (default mixing * dielectric matrix)
  average eigenvalue GAMMA=   1.1671
  2.4103  0.9829  0.6375  0.6375

 Free energy of the ion-electron system (eV)
  ---------------------------------------------------
  alpha Z        PSCENC =     11304.57052840
  Ewald energy   TEWEN  =   -160660.78111336
  -Hartree energ DENC   =    -55262.70141021
  -exchange      EXHF   =         0.00000000
  -V(xc)+E(xc)   XCENC  =      5659.06212006
  PAW double counting   =    174105.42541106  -183184.70252091
  entropy T*S    EENTRO =        -0.24556450
  eigenvalues    EBANDS =    -16332.86144090
  atomic energy  EATOM  =    224013.29143063
  Solvation  Ediel_sol  =         0.00000000
  ---------------------------------------------------
  free energy    TOTEN  =      -358.94255974 eV

  energy without entropy =     -358.69699524  energy(sigma->0) =     -358.86070490


--------------------------------------------------------------------------------------------------------




----------------------------------------- Iteration    1(  10)  ---------------------------------------


    POTLOK:  cpu time    1.7057: real time    1.7041
    SETDIJ:  cpu time    0.3739: real time    0.3742
     EDDAV:  cpu time  332.9744: real time  332.6976
       DOS:  cpu time    0.0150: real time    0.0150
    CHARGE:  cpu time   14.5438: real time   14.5317
    MIXING:  cpu time    0.0450: real time    0.0448
    --------------------------------------------
      LOOP:  cpu time  349.6588: real time  349.3683

 eigenvalue-minimisations  : 11046
 total energy-change (2. order) :-0.3816681E-02  (-0.5466709E-03)
 number of electron    1024.0005307 magnetization      35.1305312
 augmentation part      606.0527812 magnetization      30.5120554

 Broyden mixing:
  rms(total) = 0.13445E-01    rms(broyden)= 0.13419E-01
  rms(prec ) = 0.16870E-01
  weight for this iteration     100.00

 eigenvalues of (default mixing * dielectric matrix)
  average eigenvalue GAMMA=   1.1561
  2.3902  1.1682  0.9420  0.6438  0.6364

 Free energy of the ion-electron system (eV)
  ---------------------------------------------------
  alpha Z        PSCENC =     11304.57052840
  Ewald energy   TEWEN  =   -160660.78111336
  -Hartree energ DENC   =    -55258.66768181
  -exchange      EXHF   =         0.00000000
  -V(xc)+E(xc)   XCENC  =      5658.92784584
  PAW double counting   =    174214.42271610  -183296.07313007
  entropy T*S    EENTRO =        -0.24234201
  eigenvalues    EBANDS =    -16334.39463014
  atomic energy  EATOM  =    224013.29143063
  Solvation  Ediel_sol  =         0.00000000
  ---------------------------------------------------
  free energy    TOTEN  =      -358.94637642 eV

  energy without entropy =     -358.70403441  energy(sigma->0) =     -358.86559575


--------------------------------------------------------------------------------------------------------




----------------------------------------- Iteration    1(  11)  ---------------------------------------


    POTLOK:  cpu time    1.7037: real time    1.7023
    SETDIJ:  cpu time    0.3749: real time    0.3744
     EDDAV:  cpu time  334.4911: real time  334.2139
       DOS:  cpu time    0.0150: real time    0.0148
    CHARGE:  cpu time   13.9839: real time   13.9729
    MIXING:  cpu time    0.0470: real time    0.0470
    --------------------------------------------
      LOOP:  cpu time  350.6167: real time  350.3259

 eigenvalue-minimisations  : 11120
 total energy-change (2. order) :-0.1937337E-03  (-0.5961392E-04)
 number of electron    1024.0005307 magnetization      35.1202222
 augmentation part      606.0115803 magnetization      30.4910565

 Broyden mixing:
  rms(total) = 0.50680E-02    rms(broyden)= 0.50309E-02
  rms(prec ) = 0.55646E-02
  weight for this iteration     100.00

 eigenvalues of (default mixing * dielectric matrix)
  average eigenvalue GAMMA=   1.2614
  2.3187  2.3187  0.9657  0.6701  0.6701  0.6253

 Free energy of the ion-electron system (eV)
  ---------------------------------------------------
  alpha Z        PSCENC =     11304.57052840
  Ewald energy   TEWEN  =   -160660.78111336
  -Hartree energ DENC   =    -55264.76899284
  -exchange      EXHF   =         0.00000000
  -V(xc)+E(xc)   XCENC  =      5659.16125309
  PAW double counting   =    174304.71136317  -183382.92351679
  entropy T*S    EENTRO =        -0.24274099
  eigenvalues    EBANDS =    -16331.96478146
  atomic energy  EATOM  =    224013.29143063
  Solvation  Ediel_sol  =         0.00000000
  ---------------------------------------------------
  free energy    TOTEN  =      -358.94657015 eV

  energy without entropy =     -358.70382916  energy(sigma->0) =     -358.86565649


--------------------------------------------------------------------------------------------------------




----------------------------------------- Iteration    1(  12)  ---------------------------------------


    POTLOK:  cpu time    1.7077: real time    1.7062
    SETDIJ:  cpu time    0.3739: real time    0.3742
     EDDAV:  cpu time  322.1780: real time  321.9119
       DOS:  cpu time    0.0160: real time    0.0150
    CHARGE:  cpu time   13.8519: real time   13.8401
    MIXING:  cpu time    0.0490: real time    0.0494
    --------------------------------------------
      LOOP:  cpu time  338.1776: real time  337.8976

 eigenvalue-minimisations  : 10616
 total energy-change (2. order) :-0.1989354E-04  (-0.5513740E-05)
 number of electron    1024.0005307 magnetization      35.1062705
 augmentation part      606.0180108 magnetization      30.4789133

 Broyden mixing:
  rms(total) = 0.17902E-02    rms(broyden)= 0.17898E-02
  rms(prec ) = 0.21088E-02
  weight for this iteration     100.00

 eigenvalues of (default mixing * dielectric matrix)
  average eigenvalue GAMMA=   1.2662
  2.5792  2.4247  1.0266  0.7786  0.7786  0.6377  0.6377

 Free energy of the ion-electron system (eV)
  ---------------------------------------------------
  alpha Z        PSCENC =     11304.57052840
  Ewald energy   TEWEN  =   -160660.78111336
  -Hartree energ DENC   =    -55265.25145913
  -exchange      EXHF   =         0.00000000
  -V(xc)+E(xc)   XCENC  =      5659.17777822
  PAW double counting   =    174343.59416494  -183420.86482391
  entropy T*S    EENTRO =        -0.24269169
  eigenvalues    EBANDS =    -16332.44040414
  atomic energy  EATOM  =    224013.29143063
  Solvation  Ediel_sol  =         0.00000000
  ---------------------------------------------------
  free energy    TOTEN  =      -358.94659005 eV

  energy without entropy =     -358.70389836  energy(sigma->0) =     -358.86569282


--------------------------------------------------------------------------------------------------------




----------------------------------------- Iteration    1(  13)  ---------------------------------------


    POTLOK:  cpu time    1.7057: real time    1.7039
    SETDIJ:  cpu time    0.3739: real time    0.3743
     EDDAV:  cpu time  279.6955: real time  279.4630
       DOS:  cpu time    0.0150: real time    0.0145
    CHARGE:  cpu time   13.9809: real time   13.9697
    MIXING:  cpu time    0.0520: real time    0.0519
    --------------------------------------------
      LOOP:  cpu time  295.8240: real time  295.5782

 eigenvalue-minimisations  :  8800
 total energy-change (2. order) :-0.1067470E-05  (-0.5196420E-06)
 number of electron    1024.0005307 magnetization      35.0998284
 augmentation part      606.0228241 magnetization      30.4736019

 Broyden mixing:
  rms(total) = 0.47097E-03    rms(broyden)= 0.47017E-03
  rms(prec ) = 0.48732E-03
  weight for this iteration     100.00

 eigenvalues of (default mixing * dielectric matrix)
  average eigenvalue GAMMA=   1.2267
  2.6064  2.3755  1.1238  0.8713  0.8713  0.6408  0.6408  0.6837

 Free energy of the ion-electron system (eV)
  ---------------------------------------------------
  alpha Z        PSCENC =     11304.57052840
  Ewald energy   TEWEN  =   -160660.78111336
  -Hartree energ DENC   =    -55264.92281405
  -exchange      EXHF   =         0.00000000
  -V(xc)+E(xc)   XCENC  =      5659.16311442
  PAW double counting   =    174348.71332669  -183425.97391708
  entropy T*S    EENTRO =        -0.24248181
  eigenvalues    EBANDS =    -16332.76466494
  atomic energy  EATOM  =    224013.29143063
  Solvation  Ediel_sol  =         0.00000000
  ---------------------------------------------------
  free energy    TOTEN  =      -358.94659111 eV

  energy without entropy =     -358.70410930  energy(sigma->0) =     -358.86576384


--------------------------------------------------------------------------------------------------------




----------------------------------------- Iteration    1(  14)  ---------------------------------------


    POTLOK:  cpu time    1.7037: real time    1.7024
    SETDIJ:  cpu time    0.3749: real time    0.3741
     EDDAV:  cpu time  202.5382: real time  202.3704
       DOS:  cpu time    0.0150: real time    0.0150
    CHARGE:  cpu time   13.9769: real time   13.9653
    MIXING:  cpu time    0.0550: real time    0.0547
    --------------------------------------------
      LOOP:  cpu time  218.6648: real time  218.4831

 eigenvalue-minimisations  :  5514
 total energy-change (2. order) :-0.3522553E-05  (-0.4182656E-07)
 number of electron    1024.0005307 magnetization      35.0951494
 augmentation part      606.0235578 magnetization      30.4694203

 Broyden mixing:
  rms(total) = 0.23912E-03    rms(broyden)= 0.23886E-03
  rms(prec ) = 0.25678E-03
  weight for this iteration     100.00

 eigenvalues of (default mixing * dielectric matrix)
  average eigenvalue GAMMA=   1.3165
  2.6465  2.2904  2.2904  1.0458  0.8261  0.8261  0.6459  0.6459  0.6312

 Free energy of the ion-electron system (eV)
  ---------------------------------------------------
  alpha Z        PSCENC =     11304.57052840
  Ewald energy   TEWEN  =   -160660.78111336
  -Hartree energ DENC   =    -55264.84764636
  -exchange      EXHF   =         0.00000000
  -V(xc)+E(xc)   XCENC  =      5659.15938730
  PAW double counting   =    174347.96948747  -183425.26483868
  entropy T*S    EENTRO =        -0.24238055
  eigenvalues    EBANDS =    -16332.80144948
  atomic energy  EATOM  =    224013.29143063
  Solvation  Ediel_sol  =         0.00000000
  ---------------------------------------------------
  free energy    TOTEN  =      -358.94659464 eV

  energy without entropy =     -358.70421409  energy(sigma->0) =     -358.86580112


--------------------------------------------------------------------------------------------------------




----------------------------------------- Iteration    1(  15)  ---------------------------------------


    POTLOK:  cpu time    1.7047: real time    1.7037
    SETDIJ:  cpu time    0.3749: real time    0.3741
     EDDAV:  cpu time  200.2486: real time  200.0834
       DOS:  cpu time    0.0150: real time    0.0145
    --------------------------------------------
      LOOP:  cpu time  202.3442: real time  202.1763

 eigenvalue-minimisations  :  5420
 total energy-change (2. order) :-0.5315233E-06  (-0.6844128E-08)
 number of electron    1024.0005307 magnetization      35.0951494
 augmentation part      606.0235578 magnetization      30.4694203

 Free energy of the ion-electron system (eV)
  ---------------------------------------------------
  alpha Z        PSCENC =     11304.57052840
  Ewald energy   TEWEN  =   -160660.78111336
  -Hartree energ DENC   =    -55264.87709038
  -exchange      EXHF   =         0.00000000
  -V(xc)+E(xc)   XCENC  =      5659.15976480
  PAW double counting   =    174346.97527944  -183424.26548168
  entropy T*S    EENTRO =        -0.24233008
  eigenvalues    EBANDS =    -16332.77758294
  atomic energy  EATOM  =    224013.29143063
  Solvation  Ediel_sol  =         0.00000000
  ---------------------------------------------------
  free energy    TOTEN  =      -358.94659517 eV

  energy without entropy =     -358.70426509  energy(sigma->0) =     -358.86581847


--------------------------------------------------------------------------------------------------------




 average (electrostatic) potential at core
  the test charge radii are     0.8614
  (the norm of the test charge is              1.0000)
       1 -77.8308       2 -77.8308       3 -77.8308       4 -77.8308       5 -77.8308
       6 -77.8308       7 -77.8308       8 -77.8308       9 -77.8308      10 -77.8308
      11 -77.8308      12 -77.8308      13 -77.8308      14 -77.8308      15 -77.8308
      16 -77.8308      17 -77.8308      18 -77.8308      19 -77.8308      20 -77.8308
      21 -77.8308      22 -77.8308      23 -77.8308      24 -77.8308      25 -77.8308
      26 -77.8308      27 -77.8308      28 -77.8308      29 -77.8308      30 -77.8308
      31 -77.8308      32 -77.8308      33 -77.8308      34 -77.8308      35 -77.8308
      36 -77.8308      37 -77.8308      38 -77.8308      39 -77.8308      40 -77.8308
      41 -77.8308      42 -77.8308      43 -77.8308      44 -77.8308      45 -77.8308
      46 -77.8308      47 -77.8308      48 -77.8308      49 -77.8308      50 -77.8308
      51 -77.8308      52 -77.8308      53 -77.8308      54 -77.8308      55 -77.8308
      56 -77.8308      57 -77.8308      58 -77.8308      59 -77.8308      60 -77.8308
      61 -77.8308      62 -77.8308      63 -77.8308      64 -77.8308
 
 
 
 E-fermi :   9.6343     XC(G=0): -14.6418     alpha+bet :-16.9768


 spin component 1

 k-point     1 :       0.0000    0.0000    0.0000
  band No.  band energies     occupation 
      1     -54.6649      1.00000
      2     -54.6649      1.00000
      3     -54.6649      1.00000
      4     -54.6649      1.00000
      5     -54.6352      1.00000
      6     -54.6352      1.00000
      7     -54.6352      1.00000
      8     -54.6021      1.00000
      9     -54.6021      1.00000
     10     -54.6021      1.00000
     11     -54.6021      1.00000
     12     -54.6021      1.00000
     13     -54.6021      1.00000
     14     -54.6021      1.00000
     15     -54.6021      1.00000
     16     -54.6021      1.00000
     17     -54.6021      1.00000
     18     -54.6021      1.00000
     19     -54.6021      1.00000
     20     -54.6021      1.00000
     21     -54.6021      1.00000
     22     -54.6021      1.00000
     23     -54.6021      1.00000
     24     -54.6021      1.00000
     25     -54.6021      1.00000
     26     -54.6021      1.00000
     27     -54.6021      1.00000
     28     -54.6021      1.00000
     29     -54.6021      1.00000
     30     -54.6021      1.00000
     31     -54.6021      1.00000
     32     -54.5619      1.00000
     33     -54.5619      1.00000
     34     -54.5619      1.00000
     35     -54.5619      1.00000
     36     -54.5619      1.00000
     37     -54.5619      1.00000
     38     -54.5619      1.00000
     39     -54.5619      1.00000
     40     -54.5619      1.00000
     41     -54.5619      1.00000
     42     -54.5619      1.00000
     43     -54.5619      1.00000
     44     -54.5417      1.00000
     45     -54.5417      1.00000
     46     -54.5417      1.00000
     47     -54.5417      1.00000
     48     -54.5417      1.00000
     49     -54.5417      1.00000
     50     -54.5416      1.00000
     51     -54.5416      1.00000
     52     -54.5416      1.00000
     53     -54.5416      1.00000
     54     -54.5416      1.00000
     55     -54.5416      1.00000
     56     -54.4809      1.00000
     57     -54.4809      1.00000
     58     -54.4809      1.00000
     59     -54.4809      1.00000
     60     -54.4809      1.00000
     61     -54.4809      1.00000
     62     -54.4809      1.00000
     63     -54.4809      1.00000
     64     -54.4747      1.00000
     65     -54.4747      1.00000
     66     -54.4747      1.00000
     67     -54.4747      1.00000
     68     -54.4747      1.00000
     69     -54.4747      1.00000
     70     -54.4572      1.00000
     71     -54.4572      1.00000
     72     -54.4572      1.00000
     73     -54.4572      1.00000
     74     -54.4572      1.00000
     75     -54.4572      1.00000
     76     -54.4572      1.00000
     77     -54.4572      1.00000
     78     -54.4572      1.00000
     79     -54.4572      1.00000
     80     -54.4572      1.00000
     81     -54.4572      1.00000
     82     -54.4483      1.00000
     83     -54.4483      1.00000
     84     -54.4483      1.00000
     85     -54.4483      1.00000
     86     -54.4483      1.00000
     87     -54.4483      1.00000
     88     -54.4482      1.00000
     89     -54.4482      1.00000
     90     -54.4482      1.00000
     91     -54.4482      1.00000
     92     -54.4482      1.00000
     93     -54.4482      1.00000
     94     -54.4482      1.00000
     95     -54.4482      1.00000
     96     -54.4482      1.00000
     97     -54.4482      1.00000
     98     -54.4482      1.00000
     99     -54.4482      1.00000
    100     -54.4482      1.00000
    101     -54.4482      1.00000
    102     -54.4482      1.00000
    103     -54.4482      1.00000
    104     -54.4482      1.00000
    105     -54.4482      1.00000
    106     -54.4447      1.00000
    107     -54.4447      1.00000
    108     -54.4447      1.00000
    109     -54.4447      1.00000
    110     -54.4447      1.00000
    111     -54.4447      1.00000
    112     -54.4374      1.00000
    113     -54.4374      1.00000
    114     -54.4374      1.00000
    115     -54.4374      1.00000
    116     -54.4374      1.00000
    117     -54.4374      1.00000
    118     -54.3980      1.00000
    119     -54.3980      1.00000
    120     -54.3980      1.00000
    121     -54.3980      1.00000
    122     -54.3980      1.00000
    123     -54.3980      1.00000
    124     -54.3980      1.00000
    125     -54.3980      1.00000
    126     -54.3980      1.00000
    127     -54.3980      1.00000
    128     -54.3980      1.00000
    129     -54.3980      1.00000
    130     -54.3980      1.00000
    131     -54.3980      1.00000
    132     -54.3980      1.00000
    133     -54.3980      1.00000
    134     -54.3980      1.00000
    135     -54.3980      1.00000
    136     -54.3980      1.00000
    137     -54.3980      1.00000
    138     -54.3980      1.00000
    139     -54.3980      1.00000
    140     -54.3980      1.00000
    141     -54.3980      1.00000
    142     -54.3720      1.00000
    143     -54.3720      1.00000
    144     -54.3720      1.00000
    145     -54.3720      1.00000
    146     -54.3720      1.00000
    147     -54.3720      1.00000
    148     -54.3720      1.00000
    149     -54.3720      1.00000
    150     -54.3720      1.00000
    151     -54.3720      1.00000
    152     -54.3720      1.00000
    153     -54.3720      1.00000
    154     -54.3648      1.00000
    155     -54.3648      1.00000
    156     -54.3648      1.00000
    157     -54.3648      1.00000
    158     -54.3648      1.00000
    159     -54.3648      1.00000
    160     -54.3648      1.00000
    161     -54.3648      1.00000
    162     -54.3648      1.00000
    163     -54.3648      1.00000
    164     -54.3648      1.00000
    165     -54.3648      1.00000
    166     -54.3617      1.00000
    167     -54.3617      1.00000
    168     -54.3617      1.00000
    169     -54.3616      1.00000
    170     -54.3616      1.00000
    171     -54.3616      1.00000
    172     -54.3616      1.00000
    173     -54.3616      1.00000
    174     -54.3366      1.00000
    175     -54.3366      1.00000
    176     -54.3366      1.00000
    177     -54.3366      1.00000
    178     -54.3366      1.00000
    179     -54.3366      1.00000
    180     -54.3366      1.00000
    181     -54.3366      1.00000
    182     -54.3366      1.00000
    183     -54.3366      1.00000
    184     -54.3366      1.00000
    185     -54.3366      1.00000
    186     -54.3366      1.00000
    187     -54.3366      1.00000
    188     -54.3366      1.00000
    189     -54.3366      1.00000
    190     -54.3191      1.00000
    191     -54.3191      1.00000
    192     -54.3191      1.00000
    193      -0.3677      1.00000
    194       2.0627      1.00000
    195       2.0627      1.00000
    196       2.0627      1.00000
    197       2.0627      1.00000
    198       2.0627      1.00000
    199       2.0627      1.00000
    200       2.0627      1.00000
    201       2.0627      1.00000
    202       2.7547      1.00000
    203       2.7547      1.00000
    204       2.7547      1.00000
    205       2.7547      1.00000
    206       2.7547      1.00000
    207       2.7547      1.00000
    208       4.0240      1.00000
    209       4.0240      1.00000
    210       4.0240      1.00000
    211       4.0240      1.00000
    212       4.1164      1.00000
    213       4.1164      1.00000
    214       4.1164      1.00000
    215       4.7031      1.00000
    216       4.7031      1.00000
    217       4.7031      1.00000
    218       4.7941      1.00000
    219       4.7941      1.00000
    220       4.7941      1.00000
    221       4.7941      1.00000
    222       4.7941      1.00000
    223       4.7941      1.00000
    224       4.7942      1.00000
    225       4.7942      1.00000
    226       4.7942      1.00000
    227       4.7942      1.00000
    228       4.7942      1.00000
    229       4.7942      1.00000
    230       4.8539      1.00000
    231       4.8539      1.00000
    232       4.8539      1.00000
    233       4.8539      1.00000
    234       4.8539      1.00000
    235       4.8539      1.00000
    236       4.8539      1.00000
    237       4.8539      1.00000
    238       4.8539      1.00000
    239       4.8539      1.00000
    240       4.8539      1.00000
    241       4.8539      1.00000
    242       4.8539      1.00000
    243       4.8539      1.00000
    244       4.8539      1.00000
    245       4.8539      1.00000
    246       4.8539      1.00000
    247       4.8539      1.00000
    248       4.8539      1.00000
    249       4.8539      1.00000
    250       4.8539      1.00000
    251       4.8539      1.00000
    252       4.8539      1.00000
    253       4.8539      1.00000
    254       5.1632      1.00000
    255       5.1632      1.00000
    256       5.1632      1.00000
    257       5.1632      1.00000
    258       5.1632      1.00000
    259       5.1632      1.00000
    260       5.5848      1.00000
    261       5.5848      1.00000
    262       5.5848      1.00000
    263       5.5848      1.00000
    264       5.5848      1.00000
    265       5.5848      1.00000
    266       5.5848      1.00000
    267       5.5848      1.00000
    268       5.5848      1.00000
    269       5.5848      1.00000
    270       5.5848      1.00000
    271       5.5848      1.00000
    272       5.5848      1.00000
    273       5.5848      1.00000
    274       5.5848      1.00000
    275       5.5848      1.00000
    276       5.5848      1.00000
    277       5.5848      1.00000
    278       5.5848      1.00000
    279       5.5848      1.00000
    280       5.5848      1.00000
    281       5.5848      1.00000
    282       5.5848      1.00000
    283       5.5848      1.00000
    284       5.7368      1.00000
    285       5.7368      1.00000
    286       5.7368      1.00000
    287       5.7368      1.00000
    288       5.7368      1.00000
    289       5.7368      1.00000
    290       6.0794      1.00000
    291       6.0794      1.00000
    292       6.0794      1.00000
    293       6.0794      1.00000
    294       6.0794      1.00000
    295       6.0794      1.00000
    296       6.0794      1.00000
    297       6.0794      1.00000
    298       6.0794      1.00000
    299       6.0794      1.00000
    300       6.0794      1.00000
    301       6.0794      1.00000
    302       6.0804      1.00000
    303       6.0804      1.00000
    304       6.0804      1.00000
    305       6.0804      1.00000
    306       6.0804      1.00000
    307       6.0804      1.00000
    308       6.0804      1.00000
    309       6.0804      1.00000
    310       6.0804      1.00000
    311       6.0804      1.00000
    312       6.0804      1.00000
    313       6.0804      1.00000
    314       6.4197      1.00000
    315       6.4197      1.00000
    316       6.4197      1.00000
    317       6.4197      1.00000
    318       6.4197      1.00000
    319       6.4197      1.00000
    320       6.4197      1.00000
    321       6.4197      1.00000
    322       6.4197      1.00000
    323       6.4197      1.00000
    324       6.4197      1.00000
    325       6.4197      1.00000
    326       6.4687      1.00000
    327       6.4687      1.00000
    328       6.4687      1.00000
    329       6.4687      1.00000
    330       6.4687      1.00000
    331       6.4687      1.00000
    332       6.4687      1.00000
    333       6.4687      1.00000
    334       6.8692      1.00000
    335       6.8692      1.00000
    336       6.8692      1.00000
    337       6.8692      1.00000
    338       6.8692      1.00000
    339       6.8692      1.00000
    340       6.8692      1.00000
    341       6.8692      1.00000
    342       6.8804      1.00000
    343       6.8804      1.00000
    344       6.8804      1.00000
    345       6.9204      1.00000
    346       6.9204      1.00000
    347       6.9204      1.00000
    348       6.9204      1.00000
    349       6.9204      1.00000
    350       6.9204      1.00000
    351       6.9205      1.00000
    352       6.9205      1.00000
    353       6.9205      1.00000
    354       6.9205      1.00000
    355       6.9205      1.00000
    356       6.9205      1.00000
    357       6.9205      1.00000
    358       6.9205      1.00000
    359       6.9205      1.00000
    360       6.9205      1.00000
    361       6.9205      1.00000
    362       6.9205      1.00000
    363       6.9205      1.00000
    364       6.9205      1.00000
    365       6.9205      1.00000
    366       6.9205      1.00000
    367       6.9205      1.00000
    368       6.9205      1.00000
    369       7.1453      1.00000
    370       7.1453      1.00000
    371       7.1453      1.00000
    372       7.1453      1.00000
    373       7.1453      1.00000
    374       7.1453      1.00000
    375       7.1453      1.00000
    376       7.1453      1.00000
    377       7.1453      1.00000
    378       7.1453      1.00000
    379       7.1453      1.00000
    380       7.1453      1.00000
[...]
      6.732750  3.366375  3.366375     0.114927   -0.049140   -0.001462  
      8.415938  5.049563  3.366375     0.114927   -0.049140   -0.001462  
      5.049563  0.000000  5.049563     0.114927   -0.049140   -0.001462  
      6.732750  1.683188  5.049563     0.114927   -0.049140   -0.001462  
      8.415938  3.366375  5.049563     0.114927   -0.049140   -0.001462  
     10.099125  5.049563  5.049563     0.114927   -0.049140   -0.001462  
      0.000000  1.683188  1.683188     0.114927   -0.049140   -0.001462  
      1.683188  3.366375  1.683188     0.114927   -0.049140   -0.001462  
      3.366375  5.049563  1.683188     0.114927   -0.049140   -0.001462  
      5.049563  6.732750  1.683188     0.114927   -0.049140   -0.001462  
      1.683188  1.683188  3.366375     0.114927   -0.049140   -0.001462  
      3.366375  3.366375  3.366375     0.114927   -0.049140   -0.001462  
      5.049563  5.049563  3.366375     0.114927   -0.049140   -0.001462  
      6.732750  6.732750  3.366375     0.114927   -0.049140   -0.001462  
      3.366375  1.683188  5.049563     0.114927   -0.049140   -0.001462  
      5.049563  3.366375  5.049563     0.114927   -0.049140   -0.001462  
      6.732750  5.049563  5.049563     0.114927   -0.049140   -0.001462  
      8.415938  6.732750  5.049563     0.114927   -0.049140   -0.001462  
      5.049563  1.683188  6.732750     0.114927   -0.049140   -0.001462  
      6.732750  3.366375  6.732750     0.114927   -0.049140   -0.001462  
      8.415938  5.049563  6.732750     0.114927   -0.049140   -0.001462  
     10.099125  6.732750  6.732750     0.114927   -0.049140   -0.001462  
      0.000000  3.366375  3.366375     0.114927   -0.049140   -0.001462  
      1.683188  5.049563  3.366375     0.114927   -0.049140   -0.001462  
      3.366375  6.732750  3.366375     0.114927   -0.049140   -0.001462  
      5.049563  8.415938  3.366375     0.114927   -0.049140   -0.001462  
      1.683188  3.366375  5.049563     0.114927   -0.049140   -0.001462  
      3.366375  5.049563  5.049563     0.114927   -0.049140   -0.001462  
      5.049563  6.732750  5.049563     0.114927   -0.049140   -0.001462  
      6.732750  8.415938  5.049563     0.114927   -0.049140   -0.001462  
      3.366375  3.366375  6.732750     0.114927   -0.049140   -0.001462  
      5.049563  5.049563  6.732750     0.114927   -0.049140   -0.001462  
      6.732750  6.732750  6.732750     0.114927   -0.049140   -0.001462  
      8.415938  8.415938  6.732750     0.114927   -0.049140   -0.001462  
      5.049563  3.366375  8.415938     0.114927   -0.049140   -0.001462  
      6.732750  5.049563  8.415938     0.114927   -0.049140   -0.001462  
      8.415938  6.732750  8.415938     0.114927   -0.049140   -0.001462  
     10.099125  8.415938  8.415938     0.114927   -0.049140   -0.001462  
      0.000000  5.049563  5.049563     0.114927   -0.049140   -0.001462  
      1.683188  6.732750  5.049563     0.114927   -0.049140   -0.001462  
      3.366375  8.415938  5.049563     0.114927   -0.049140   -0.001462  
      5.049563 10.099125  5.049563     0.114927   -0.049140   -0.001462  
      1.683188  5.049563  6.732750     0.114927   -0.049140   -0.001462  
      3.366375  6.732750  6.732750     0.114927   -0.049140   -0.001462  
      5.049563  8.415938  6.732750     0.114927   -0.049140   -0.001462  
      6.732750 10.099125  6.732750     0.114927   -0.049140   -0.001462  
      3.366375  5.049563  8.415938     0.114927   -0.049140   -0.001462  
      5.049563  6.732750  8.415938     0.114927   -0.049140   -0.001462  
      6.732750  8.415938  8.415938     0.114927   -0.049140   -0.001462  
      8.415938 10.099125  8.415938     0.114927   -0.049140   -0.001462  
      5.049563  5.049563 10.099125     0.114927   -0.049140   -0.001462  
      6.732750  6.732750 10.099125     0.114927   -0.049140   -0.001462  
      8.415938  8.415938 10.099125     0.114927   -0.049140   -0.001462  
     10.099125 10.099125 10.099125     0.114927   -0.049140   -0.001462  
 
 192 f  =    0.000002 THz     0.000014 2PiTHz    0.000075 cm-1     0.000009 meV
             X         Y         Z           dx          dy          dz
      0.000000  0.000000  0.000000     0.001354   -0.000552    0.124991  
      1.683188  1.683188  0.000000     0.001354   -0.000552    0.124991  
      3.366375  3.366375  0.000000     0.001354   -0.000552    0.124991  
      5.049563  5.049563  0.000000     0.001354   -0.000552    0.124991  
      1.683188  0.000000  1.683188     0.001354   -0.000552    0.124991  
      3.366375  1.683188  1.683188     0.001354   -0.000552    0.124991  
      5.049563  3.366375  1.683188     0.001354   -0.000552    0.124991  
      6.732750  5.049563  1.683188     0.001354   -0.000552    0.124991  
      3.366375  0.000000  3.366375     0.001354   -0.000552    0.124991  
      5.049563  1.683188  3.366375     0.001354   -0.000552    0.124991  
      6.732750  3.366375  3.366375     0.001354   -0.000552    0.124991  
      8.415938  5.049563  3.366375     0.001354   -0.000552    0.124991  
      5.049563  0.000000  5.049563     0.001354   -0.000552    0.124991  
      6.732750  1.683188  5.049563     0.001354   -0.000552    0.124991  
      8.415938  3.366375  5.049563     0.001354   -0.000552    0.124991  
     10.099125  5.049563  5.049563     0.001354   -0.000552    0.124991  
      0.000000  1.683188  1.683188     0.001354   -0.000552    0.124991  
      1.683188  3.366375  1.683188     0.001354   -0.000552    0.124991  
      3.366375  5.049563  1.683188     0.001354   -0.000552    0.124991  
      5.049563  6.732750  1.683188     0.001354   -0.000552    0.124991  
      1.683188  1.683188  3.366375     0.001354   -0.000552    0.124991  
      3.366375  3.366375  3.366375     0.001354   -0.000552    0.124991  
      5.049563  5.049563  3.366375     0.001354   -0.000552    0.124991  
      6.732750  6.732750  3.366375     0.001354   -0.000552    0.124991  
      3.366375  1.683188  5.049563     0.001354   -0.000552    0.124991  
      5.049563  3.366375  5.049563     0.001354   -0.000552    0.124991  
      6.732750  5.049563  5.049563     0.001354   -0.000552    0.124991  
      8.415938  6.732750  5.049563     0.001354   -0.000552    0.124991  
      5.049563  1.683188  6.732750     0.001354   -0.000552    0.124991  
      6.732750  3.366375  6.732750     0.001354   -0.000552    0.124991  
      8.415938  5.049563  6.732750     0.001354   -0.000552    0.124991  
     10.099125  6.732750  6.732750     0.001354   -0.000552    0.124991  
      0.000000  3.366375  3.366375     0.001354   -0.000552    0.124991  
      1.683188  5.049563  3.366375     0.001354   -0.000552    0.124991  
      3.366375  6.732750  3.366375     0.001354   -0.000552    0.124991  
      5.049563  8.415938  3.366375     0.001354   -0.000552    0.124991  
      1.683188  3.366375  5.049563     0.001354   -0.000552    0.124991  
      3.366375  5.049563  5.049563     0.001354   -0.000552    0.124991  
      5.049563  6.732750  5.049563     0.001354   -0.000552    0.124991  
      6.732750  8.415938  5.049563     0.001354   -0.000552    0.124991  
      3.366375  3.366375  6.732750     0.001354   -0.000552    0.124991  
      5.049563  5.049563  6.732750     0.001354   -0.000552    0.124991  
      6.732750  6.732750  6.732750     0.001354   -0.000552    0.124991  
      8.415938  8.415938  6.732750     0.001354   -0.000552    0.124991  
      5.049563  3.366375  8.415938     0.001354   -0.000552    0.124991  
      6.732750  5.049563  8.415938     0.001354   -0.000552    0.124991  
      8.415938  6.732750  8.415938     0.001354   -0.000552    0.124991  
     10.099125  8.415938  8.415938     0.001354   -0.000552    0.124991  
      0.000000  5.049563  5.049563     0.001354   -0.000552    0.124991  
      1.683188  6.732750  5.049563     0.001354   -0.000552    0.124991  
      3.366375  8.415938  5.049563     0.001354   -0.000552    0.124991  
      5.049563 10.099125  5.049563     0.001354   -0.000552    0.124991  
      1.683188  5.049563  6.732750     0.001354   -0.000552    0.124991  
      3.366375  6.732750  6.732750     0.001354   -0.000552    0.124991  
      5.049563  8.415938  6.732750     0.001354   -0.000552    0.124991  
      6.732750 10.099125  6.732750     0.001354   -0.000552    0.124991  
      3.366375  5.049563  8.415938     0.001354   -0.000552    0.124991  
      5.049563  6.732750  8.415938     0.001354   -0.000552    0.124991  
      6.732750  8.415938  8.415938     0.001354   -0.000552    0.124991  
      8.415938 10.099125  8.415938     0.001354   -0.000552    0.124991  
      5.049563  5.049563 10.099125     0.001354   -0.000552    0.124991  
      6.732750  6.732750 10.099125     0.001354   -0.000552    0.124991  
      8.415938  8.415938 10.099125     0.001354   -0.000552    0.124991  
     10.099125 10.099125 10.099125     0.001354   -0.000552    0.124991  
 

 ELASTIC MODULI CONTR FROM IONIC RELAXATION (kBar)
 Direction    XX          YY          ZZ          XY          YZ          ZX
 --------------------------------------------------------------------------------
 XX           0.0000     -0.0000     -0.0000      0.0000      0.0000     -0.0000
 YY           0.0000      0.0000     -0.0000      0.0000      0.0000     -0.0000
 ZZ          -0.0000      0.0000      0.0000      0.0000     -0.0000      0.0000
 XY          -0.0000      0.0000      0.0000      0.0000     -0.0000     -0.0000
 YZ           0.0000      0.0000     -0.0000      0.0000      0.0000     -0.0000
 ZX          -0.0000      0.0000      0.0000     -0.0000     -0.0000      0.0000
 --------------------------------------------------------------------------------



--------------------------------------------------------------------------------------------------------


  LATTYP: Found a face centered cubic cell.
 ALAT       =    13.4655000000
  
  Lattice vectors:
  
 A1 = (   0.0000000000,   6.7327500000,   6.7327500000)
 A2 = (   6.7327500000,   0.0000000000,   6.7327500000)
 A3 = (   6.7327500000,   6.7327500000,   0.0000000000)


Analysis of symmetry for initial positions (statically):
=====================================================================
 Subroutine PRICEL returns following result:
 
  LATTYP: Found a face centered cubic cell.
 ALAT       =     3.3663750000
  
  Lattice vectors:
  
 A1 = (   0.0000000000,   1.6831875000,   1.6831875000)
 A2 = (   1.6831875000,   0.0000000000,   1.6831875000)
 A3 = (   1.6831875000,   1.6831875000,   0.0000000000)
 
  64 primitive cells build up your supercell.
 

 Routine SETGRP: Setting up the symmetry group for a 
 face centered cubic supercell.


 Subroutine GETGRP returns: Found 48 space group operations
 (whereof 48 operations were pure point group operations)
 out of a pool of 48 trial point group operations.


The static configuration has the point symmetry O_h .


Analysis of symmetry for dynamics (positions and initial velocities):
=====================================================================
 Subroutine PRICEL returns following result:
 
  LATTYP: Found a face centered cubic cell.
 ALAT       =     3.3663750000
  
  Lattice vectors:
  
 A1 = (   0.0000000000,   1.6831875000,   1.6831875000)
 A2 = (   1.6831875000,   0.0000000000,   1.6831875000)
 A3 = (   1.6831875000,   1.6831875000,   0.0000000000)
 
  64 primitive cells build up your supercell.
 

 Routine SETGRP: Setting up the symmetry group for a 
 face centered cubic supercell.


 Subroutine GETGRP returns: Found 48 space group operations
 (whereof 48 operations were pure point group operations)
 out of a pool of 48 trial point group operations.


The dynamic configuration has the point symmetry O_h .


Analysis of structural, dynamic, and magnetic symmetry:
=====================================================================
 Subroutine PRICEL returns following result:
 
  LATTYP: Found a face centered cubic cell.
 ALAT       =     3.3663750000
  
  Lattice vectors:
  
 A1 = (   0.0000000000,   1.6831875000,   1.6831875000)
 A2 = (   1.6831875000,   0.0000000000,   1.6831875000)
 A3 = (   1.6831875000,   1.6831875000,   0.0000000000)
 
  64 primitive cells build up your supercell.
 

 Routine SETGRP: Setting up the symmetry group for a 
 face centered cubic supercell.


 Subroutine GETGRP returns: Found 48 space group operations
 (whereof 48 operations were pure point group operations)
 out of a pool of 48 trial point group operations.


The magnetic configuration has the point symmetry O_h .


 Subroutine INISYM returns: Found 48 space group operations
 (whereof 48 operations are pure point group operations),
 and found    64 'primitive' translations

 
 KPOINTS: Zr 15x15x15                             

Automatic generation of k-mesh.
Space group operators:
 irot       det(A)        alpha          n_x          n_y          n_z        tau_x        tau_y        tau_z
    1     1.000000     0.000000     1.000000     0.000000     0.000000     0.000000     0.000000     0.000000
    2    -1.000000     0.000000     1.000000     0.000000     0.000000     0.000000     0.000000     0.000000
    3     1.000000   120.000000    -0.577350    -0.577350    -0.577350     0.000000     0.000000     0.000000
    4    -1.000000   120.000000    -0.577350    -0.577350    -0.577350     0.000000     0.000000     0.000000
    5     1.000000   120.000000     0.577350     0.577350     0.577350     0.000000     0.000000     0.000000
    6    -1.000000   120.000000     0.577350     0.577350     0.577350     0.000000     0.000000     0.000000
    7     1.000000    90.000000     0.000000     0.000000    -1.000000     0.000000     0.000000     0.000000
    8    -1.000000    90.000000     0.000000     0.000000    -1.000000     0.000000     0.000000     0.000000
    9     1.000000   180.000000     0.000000     0.707107     0.707107     0.000000     0.000000     0.000000
   10    -1.000000   180.000000     0.000000     0.707107     0.707107     0.000000     0.000000     0.000000
   11     1.000000    90.000000     0.000000     1.000000     0.000000     0.000000     0.000000     0.000000
   12    -1.000000    90.000000     0.000000     1.000000     0.000000     0.000000     0.000000     0.000000
   13     1.000000   180.000000     0.000000     0.000000     1.000000     0.000000     0.000000     0.000000
   14    -1.000000   180.000000     0.000000     0.000000     1.000000     0.000000     0.000000     0.000000
   15     1.000000   120.000000    -0.577350     0.577350     0.577350     0.000000     0.000000     0.000000
   16    -1.000000   120.000000    -0.577350     0.577350     0.577350     0.000000     0.000000     0.000000
   17     1.000000   120.000000    -0.577350     0.577350    -0.577350     0.000000     0.000000     0.000000
   18    -1.000000   120.000000    -0.577350     0.577350    -0.577350     0.000000     0.000000     0.000000
   19     1.000000    90.000000     0.000000     0.000000     1.000000     0.000000     0.000000     0.000000
   20    -1.000000    90.000000     0.000000     0.000000     1.000000     0.000000     0.000000     0.000000
   21     1.000000    90.000000    -1.000000     0.000000     0.000000     0.000000     0.000000     0.000000
   22    -1.000000    90.000000    -1.000000     0.000000     0.000000     0.000000     0.000000     0.000000
   23     1.000000   180.000000     0.707107     0.000000     0.707107     0.000000     0.000000     0.000000
   24    -1.000000   180.000000     0.707107     0.000000     0.707107     0.000000     0.000000     0.000000
   25     1.000000   120.000000     0.577350    -0.577350     0.577350     0.000000     0.000000     0.000000
   26    -1.000000   120.000000     0.577350    -0.577350     0.577350     0.000000     0.000000     0.000000
   27     1.000000   120.000000    -0.577350    -0.577350     0.577350     0.000000     0.000000     0.000000
   28    -1.000000   120.000000    -0.577350    -0.577350     0.577350     0.000000     0.000000     0.000000
   29     1.000000   180.000000     1.000000     0.000000     0.000000     0.000000     0.000000     0.000000
   30    -1.000000   180.000000     1.000000     0.000000     0.000000     0.000000     0.000000     0.000000
   31     1.000000    90.000000     0.000000    -1.000000     0.000000     0.000000     0.000000     0.000000
   32    -1.000000    90.000000     0.000000    -1.000000     0.000000     0.000000     0.000000     0.000000
   33     1.000000   180.000000     0.707107     0.707107     0.000000     0.000000     0.000000     0.000000
   34    -1.000000   180.000000     0.707107     0.707107     0.000000     0.000000     0.000000     0.000000
   35     1.000000    90.000000     1.000000     0.000000     0.000000     0.000000     0.000000     0.000000
   36    -1.000000    90.000000     1.000000     0.000000     0.000000     0.000000     0.000000     0.000000
   37     1.000000   120.000000     0.577350    -0.577350    -0.577350     0.000000     0.000000     0.000000
   38    -1.000000   120.000000     0.577350    -0.577350    -0.577350     0.000000     0.000000     0.000000
   39     1.000000   180.000000     0.000000     1.000000     0.000000     0.000000     0.000000     0.000000
   40    -1.000000   180.000000     0.000000     1.000000     0.000000     0.000000     0.000000     0.000000
   41     1.000000   120.000000     0.577350     0.577350    -0.577350     0.000000     0.000000     0.000000
   42    -1.000000   120.000000     0.577350     0.577350    -0.577350     0.000000     0.000000     0.000000
   43     1.000000   180.000000     0.000000    -0.707107     0.707107     0.000000     0.000000     0.000000
   44    -1.000000   180.000000     0.000000    -0.707107     0.707107     0.000000     0.000000     0.000000
   45     1.000000   180.000000     0.707107    -0.707107     0.000000     0.000000     0.000000     0.000000
   46    -1.000000   180.000000     0.707107    -0.707107     0.000000     0.000000     0.000000     0.000000
   47     1.000000   180.000000     0.707107     0.000000    -0.707107     0.000000     0.000000     0.000000
   48    -1.000000   180.000000     0.707107     0.000000    -0.707107     0.000000     0.000000     0.000000
 
 Subroutine IBZKPT returns following result:
 ===========================================
 
 Found      4 irreducible k-points:
 
 Following reciprocal coordinates:
            Coordinates               Weight
  0.000000  0.000000  0.000000      1.000000
  0.333333  0.000000  0.000000      8.000000
  0.333333  0.333333  0.000000      6.000000
 -0.333333  0.333333  0.000000     12.000000
 
 Following cartesian coordinates:
            Coordinates               Weight
  0.000000  0.000000  0.000000      1.000000
 -0.024755  0.024755  0.024755      8.000000
  0.000000  0.000000  0.049509      6.000000
  0.049509 -0.049509  0.000000     12.000000
 
 writing wavefunctions
     LOOP+:  cpu time 7316.3827: real time 7310.9129
    4ORBIT:  cpu time    0.0000: real time    0.0000

 total amount of memory used by VASP on root node  1191641. kBytes
========================================================================

   base      :      30000. kBytes
   nonlr-proj:      47454. kBytes
   fftplans  :      59784. kBytes
   grid      :     143424. kBytes
   one-center:       1990. kBytes
   wavefun   :     908989. kBytes
 
  
  
 General timing and accounting informations for this job:
 ========================================================
  
                  Total CPU time used (sec):    35717.637
                            User time (sec):    35709.252
                          System time (sec):        8.385
                         Elapsed time (sec):    35690.098
  
                   Maximum memory used (kb):     3033328.
                   Average memory used (kb):           0.
  
                          Minor page faults:       343481
                          Major page faults:            3
                 Voluntary context switches:          848
