<?xml version="1.0" encoding="ISO-8859-1"?>
<modeling>
 <generator>
  <i name="program" type="string">vasp </i>
  <i name="version" type="string">5.4.1  </i>
  <i name="subversion" type="string">05Feb16 (build Oct 12 2016 17:31:35) complex                          parallel </i>
  <i name="platform" type="string">IFC91_ompi </i>
  <i name="date" type="string">2020 09 07 </i>
  <i name="time" type="string">12:04:19 </i>
 </generator>
 <incar>
  <i type="string" name="SYSTEM"> phonon of Zr bcc - omiga</i>
  <i type="string" name="PREC">a</i>
  <i type="int" name="ISPIN">     2</i>
  <i type="int" name="IBRION">     6</i>
  <i type="int" name="NFREE">     4</i>
  <i name="EDIFF">      0.00000100</i>
  <i type="int" name="NSW">     1</i>
  <v name="MAGMOM">      1.00000000      1.00000000      1.00000000      1.00000000      1.00000000      1.00000000      1.00000000      1.00000000      1.00000000      1.00000000      1.00000000      1.00000000      1.00000000      1.00000000      1.00000000      1.00000000      1.00000000      1.00000000      1.00000000      1.00000000
      1.00000000      1.00000000      1.00000000      1.00000000      1.00000000      1.00000000      1.00000000      1.00000000      1.00000000      1.00000000      1.00000000      1.00000000      1.00000000      1.00000000      1.00000000      1.00000000      1.00000000      1.00000000      1.00000000      1.00000000
      1.00000000      1.00000000      1.00000000      1.00000000      1.00000000      1.00000000      1.00000000      1.00000000      1.00000000      1.00000000      1.00000000      1.00000000      1.00000000      1.00000000      1.00000000      1.00000000      1.00000000      1.00000000      1.00000000      1.00000000
      1.00000000      1.00000000      1.00000000      1.00000000</v>
  <i type="string" name="LREAL">Auto</i>
  <i type="int" name="ISMEAR">     1</i>
  <i type="int" name="NWRITE">     0</i>
  <v type="int" name="KPOINT_BSE">    -1     0     0     0</v>
 </incar>
 <kpoints>
  <generation param="Gamma">
   <v type="int" name="divisions">       3        3        3 </v>
   <v name="usershift">      0.00000000       0.00000000       0.00000000 </v>
   <v name="genvec1">      0.33333333       0.00000000       0.00000000 </v>
   <v name="genvec2">      0.00000000       0.33333333       0.00000000 </v>
   <v name="genvec3">      0.00000000       0.00000000       0.33333333 </v>
   <v name="shift">      0.00000000       0.00000000       0.00000000 </v>
  </generation>
  <varray name="kpointlist" >
   <v>       0.00000000       0.00000000       0.00000000 </v>
   <v>       0.33333333       0.00000000       0.00000000 </v>
   <v>       0.33333333       0.33333333       0.00000000 </v>
   <v>      -0.33333333       0.33333333       0.00000000 </v>
  </varray>
  <varray name="weights" >
   <v>       0.03703704 </v>
   <v>       0.29629630 </v>
   <v>       0.22222222 </v>
   <v>       0.44444444 </v>
  </varray>
 </kpoints>
 <parameters>
  <separator name="general" >
   <i type="string" name="SYSTEM">phonon of Zr bcc - omiga</i>
   <i type="logical" name="LCOMPAT"> F  </i>
  </separator>
  <separator name="electronic" >
   <i type="string" name="PREC">a</i>
   <i name="ENMAX">    367.94500000</i>
   <i name="ENAUG">    703.44300000</i>
   <i name="EDIFF">      0.00000100</i>
   <i type="int" name="IALGO">    38</i>
   <i type="int" name="IWAVPR">    11</i>
   <i type="int" name="NBANDS">   646</i>
   <i name="NELECT">   1024.00000000</i>
   <i type="int" name="TURBO">     0</i>
   <i type="int" name="IRESTART">     0</i>
   <i type="int" name="NREBOOT">     0</i>
   <i type="int" name="NMIN">     0</i>
   <i name="EREF">      0.00000000</i>
   <separator name="electronic smearing" >
    <i type="int" name="ISMEAR">     1</i>
    <i name="SIGMA">      0.20000000</i>
    <i name="KSPACING">      0.50000000</i>
    <i type="logical" name="KGAMMA"> T  </i>
   </separator>
   <separator name="electronic projectors" >
    <i type="logical" name="LREAL"> T  </i>
    <v name="ROPT">     -0.00025000</v>
    <i type="int" name="LMAXPAW">  -100</i>
    <i type="int" name="LMAXMIX">     2</i>
    <i type="logical" name="NLSPLINE"> F  </i>
   </separator>
   <separator name="electronic startup" >
    <i type="int" name="ISTART">     0</i>
    <i type="int" name="ICHARG">     2</i>
    <i type="int" name="INIWAV">     1</i>
   </separator>
   <separator name="electronic spin" >
    <i type="int" name="ISPIN">     2</i>
    <i type="logical" name="LNONCOLLINEAR"> F  </i>
    <v name="MAGMOM">      1.00000000      1.00000000      1.00000000      1.00000000      1.00000000      1.00000000      1.00000000      1.00000000      1.00000000      1.00000000      1.00000000      1.00000000      1.00000000      1.00000000      1.00000000      1.00000000      1.00000000      1.00000000      1.00000000      1.00000000
      1.00000000      1.00000000      1.00000000      1.00000000      1.00000000      1.00000000      1.00000000      1.00000000      1.00000000      1.00000000      1.00000000      1.00000000      1.00000000      1.00000000      1.00000000      1.00000000      1.00000000      1.00000000      1.00000000      1.00000000
      1.00000000      1.00000000      1.00000000      1.00000000      1.00000000      1.00000000      1.00000000      1.00000000      1.00000000      1.00000000      1.00000000      1.00000000      1.00000000      1.00000000      1.00000000      1.00000000      1.00000000      1.00000000      1.00000000      1.00000000
      1.00000000      1.00000000      1.00000000      1.00000000</v>
    <i name="NUPDOWN">     -1.00000000</i>
    <i type="logical" name="LSORBIT"> F  </i>
    <v name="SAXIS">      0.00000000      0.00000000      1.00000000</v>
    <i type="logical" name="LSPIRAL"> F  </i>
    <v name="QSPIRAL">      0.00000000      0.00000000      0.00000000</v>
    <i type="logical" name="LZEROZ"> F  </i>
   </separator>
   <separator name="electronic exchange-correlation" >
    <i type="logical" name="LASPH"> F  </i>
    <i type="logical" name="LMETAGGA"> F  </i>
   </separator>
   <separator name="electronic convergence" >
    <i type="int" name="NELM">    60</i>
    <i type="int" name="NELMDL">     0</i>
    <i type="int" name="NELMIN">     2</i>
    <i name="ENINI">    367.94500000</i>
    <separator name="electronic convergence detail" >
     <i type="logical" name="LDIAG"> T  </i>
     <i type="logical" name="LSUBROT"> F  </i>
     <i name="WEIMIN">      0.00100000</i>
     <i name="EBREAK">      0.00000000</i>
     <i name="DEPER">      0.30000000</i>
     <i type="int" name="NRMM">     4</i>
     <i name="TIME">      0.40000000</i>
    </separator>
   </separator>
   <separator name="electronic mixer" >
    <i name="AMIX">      0.40000000</i>
    <i name="BMIX">      1.00000000</i>
    <i name="AMIN">      0.10000000</i>
    <i name="AMIX_MAG">      1.60000000</i>
    <i name="BMIX_MAG">      1.00000000</i>
    <separator name="electronic mixer details" >
     <i type="int" name="IMIX">     4</i>
     <i type="logical" name="MIXFIRST"> F  </i>
     <i type="int" name="MAXMIX">   -45</i>
     <i name="WC">    100.00000000</i>
     <i type="int" name="INIMIX">     1</i>
     <i type="int" name="MIXPRE">     1</i>
     <i type="int" name="MREMOVE">     5</i>
    </separator>
   </separator>
   <separator name="electronic dipolcorrection" >
    <i type="logical" name="LDIPOL"> F  </i>
    <i type="logical" name="LMONO"> F  </i>
    <i type="int" name="IDIPOL">     0</i>
    <i name="EPSILON">      1.00000000</i>
    <v name="DIPOL">   -100.00000000   -100.00000000   -100.00000000</v>
    <i name="EFIELD">      0.00000000</i>
   </separator>
  </separator>
  <separator name="grids" >
   <i type="int" name="NGX">    60</i>
   <i type="int" name="NGY">    60</i>
   <i type="int" name="NGZ">    60</i>
   <i type="int" name="NGXF">   120</i>
   <i type="int" name="NGYF">   120</i>
   <i type="int" name="NGZF">   120</i>
   <i type="logical" name="ADDGRID"> F  </i>
  </separator>
  <separator name="ionic" >
   <i type="int" name="NSW">   805</i>
   <i type="int" name="IBRION">     6</i>
   <i type="int" name="ISIF">     2</i>
   <i name="PSTRESS">      0.00000000</i>
   <i name="EDIFFG">      0.00001000</i>
   <i type="int" name="NFREE">     4</i>
   <i name="POTIM">      0.50000000</i>
   <i name="SMASS">     -3.00000000</i>
   <i name="SCALEE">      1.00000000</i>
  </separator>
  <separator name="ionic md" >
   <i name="TEBEG">      0.00010000</i>
   <i name="TEEND">      0.00010000</i>
   <i type="int" name="NBLOCK">     1</i>
   <i type="int" name="KBLOCK">     1</i>
   <i type="int" name="NPACO">   256</i>
   <i name="APACO">     16.00000000</i>
  </separator>
  <separator name="symmetry" >
   <i type="int" name="ISYM">     2</i>
   <i name="SYMPREC">      0.00001000</i>
  </separator>
  <separator name="dos" >
   <i type="logical" name="LORBIT"> F  </i>
   <v name="RWIGS">     -1.00000000</v>
   <i type="int" name="NEDOS">   301</i>
   <i name="EMIN">     10.00000000</i>
   <i name="EMAX">    -10.00000000</i>
   <i name="EFERMI">      0.00000000</i>
  </separator>
  <separator name="writing" >
   <i type="int" name="NWRITE">     0</i>
   <i type="logical" name="LWAVE"> T  </i>
   <i type="logical" name="LCHARG"> T  </i>
   <i type="logical" name="LPARD"> F  </i>
   <i type="logical" name="LVTOT"> F  </i>
   <i type="logical" name="LVHAR"> F  </i>
   <i type="logical" name="LELF"> F  </i>
   <i type="logical" name="LOPTICS"> F  </i>
   <v name="STM">      0.00000000      0.00000000      0.00000000      0.00000000      0.00000000      0.00000000      0.00000000</v>
  </separator>
  <separator name="performance" >
   <i type="int" name="NPAR">     1</i>
   <i type="int" name="NSIM">     4</i>
   <i type="int" name="NBLK">    -1</i>
   <i type="logical" name="LPLANE"> T  </i>
   <i type="logical" name="LSCALAPACK"> T  </i>
   <i type="logical" name="LSCAAWARE"> F  </i>
   <i type="logical" name="LSCALU"> F  </i>
   <i type="logical" name="LASYNC"> F  </i>
   <i type="logical" name="LORBITALREAL"> F  </i>
  </separator>
  <separator name="miscellaneous" >
   <i type="int" name="IDIOT">     3</i>
   <i type="logical" name="LMUSIC"> F  </i>
   <v name="POMASS">     58.69000000</v>
   <v name="DARWINR">      0.00000000</v>
   <v name="DARWINV">      1.00000000</v>
   <i type="logical" name="LCORR"> T  </i>
  </separator>
  <i type="logical" name="GGA_COMPAT"> T  </i>
  <i type="logical" name="LBERRY"> F  </i>
  <i type="int" name="ICORELEVEL">     0</i>
  <i type="logical" name="LDAU"> F  </i>
  <i type="int" name="I_CONSTRAINED_M">     0</i>
  <separator name="electronic exchange-correlation" >
   <i type="string" name="GGA">--</i>
   <i type="int" name="VOSKOWN">     0</i>
   <i type="logical" name="LHFCALC"> F  </i>
   <i type="string" name="PRECFOCK"></i>
   <i type="logical" name="LSYMGRAD"> F  </i>
   <i type="logical" name="LHFONE"> F  </i>
   <i type="logical" name="LRHFCALC"> F  </i>
   <i type="logical" name="LTHOMAS"> F  </i>
   <i type="logical" name="LMODELHF"> F  </i>
   <i name="ENCUT4O">     -1.00000000</i>
   <i type="int" name="EXXOEP">     0</i>
   <i type="int" name="FOURORBIT">     0</i>
   <i name="AEXX">      0.00000000</i>
   <i name="HFALPHA">      0.00000000</i>
   <i name="MCALPHA">      0.00000000</i>
   <i name="ALDAX">      1.00000000</i>
   <i name="AGGAX">      1.00000000</i>
   <i name="ALDAC">      1.00000000</i>
   <i name="AGGAC">      1.00000000</i>
   <i type="int" name="NKREDX">     1</i>
   <i type="int" name="NKREDY">     1</i>
   <i type="int" name="NKREDZ">     1</i>
   <i type="logical" name="SHIFTRED"> F  </i>
   <i type="logical" name="ODDONLY"> F  </i>
   <i type="logical" name="EVENONLY"> F  </i>
   <i type="int" name="LMAXFOCK">     0</i>
   <i type="int" name="NMAXFOCKAE">     0</i>
   <i type="logical" name="LFOCKAEDFT"> F  </i>
   <i name="HFSCREEN">      0.00000000</i>
   <i name="HFSCREENC">      0.00000000</i>
   <i type="int" name="NBANDSGWLOW">     0</i>
  </separator>
  <separator name="vdW DFT" >
   <i type="logical" name="LUSE_VDW"> F  </i>
   <i name="Zab_VDW">     -0.84910000</i>
   <i name="PARAM1">      0.12340000</i>
   <i name="PARAM2">      1.00000000</i>
   <i name="PARAM3">      0.00000000</i>
  </separator>
  <separator name="model GW" >
   <i type="int" name="MODEL_GW">     0</i>
   <i name="MODEL_EPS0">      5.72240693</i>
   <i name="MODEL_ALPHA">      1.00000000</i>
  </separator>
  <separator name="linear response parameters" >
   <i type="logical" name="LEPSILON"> F  </i>
   <i type="logical" name="LRPA"> F  </i>
   <i type="logical" name="LNABLA"> F  </i>
   <i type="logical" name="LVEL"> F  </i>
   <i type="int" name="KINTER">     0</i>
   <i name="CSHIFT">      0.10000000</i>
   <i name="OMEGAMAX">     -1.00000000</i>
   <i name="DEG_THRESHOLD">      0.00200000</i>
  </separator>
  <separator name="orbital magnetization" >
   <i type="logical" name="NUCIND"> F  </i>
   <v name="MAGPOS">      0.00000000      0.00000000      0.00000000</v>
   <i type="logical" name="LNICSALL"> T  </i>
   <i type="logical" name="ORBITALMAG"> F  </i>
   <i type="logical" name="LMAGBLOCH"> F  </i>
   <i type="logical" name="LCHIMAG"> F  </i>
   <i type="logical" name="LGAUGE"> T  </i>
   <i type="int" name="MAGATOM">     0</i>
   <v name="MAGDIPOL">      0.00000000      0.00000000      0.00000000</v>
   <v name="AVECCONST">      0.00000000      0.00000000      0.00000000</v>
  </separator>
  <separator name="response functions" >
   <i type="logical" name="LADDER"> F  </i>
   <i type="logical" name="LFXC"> F  </i>
   <i type="logical" name="LHARTREE"> T  </i>
   <i type="int" name="IBSE">     0</i>
   <v type="int" name="KPOINT">    -1     0     0     0</v>
   <i type="logical" name="LTCTE"> F  </i>
   <i type="logical" name="LTETE"> F  </i>
   <i type="logical" name="LTRIPLET"> F  </i>
   <i type="logical" name="LFXCEPS"> F  </i>
   <i type="logical" name="LFXHEG"> F  </i>
   <i type="int" name="NATURALO">     0</i>
   <i type="logical" name="L2ORDER"> F  </i>
   <i type="logical" name="LUSEW"> F  </i>
   <i name="ENCUTGW">     -2.00000000</i>
   <i name="ENCUTGWSOFT">     -2.00000000</i>
   <i name="ENCUTLF">     -1.00000000</i>
   <i type="int" name="LMAXMP2">    -1</i>
   <i name="SCISSOR">      0.00000000</i>
   <i type="int" name="NOMEGA">     0</i>
   <i type="int" name="NOMEGAR">     0</i>
   <i type="int" name="NBANDSGW">    -1</i>
   <i type="int" name="NBANDSO">    -1</i>
   <i type="int" name="NBANDSV">    -1</i>
   <i type="int" name="NELM">     1</i>
   <i type="int" name="NELMHF">     1</i>
   <i type="int" name="DIM">     3</i>
   <i type="int" name="ANTIRES">     0</i>
   <i name="OMEGAMAX">    -30.00000000</i>
   <i name="OMEGAMIN">    -30.00000000</i>
   <i name="OMEGATL">   -200.00000000</i>
   <i type="int" name="OMEGAGRID">     0</i>
   <i name="CSHIFT">     -0.10000000</i>
   <i type="logical" name="SELFENERGY"> F  </i>
   <i type="logical" name="LSPECTRAL"> F  </i>
   <i type="logical" name="LSPECTRALGW"> F  </i>
   <i type="logical" name="LSINGLES"> F  </i>
   <i type="logical" name="LFERMIGW"> F  </i>
   <i type="logical" name="ODDONLYGW"> F  </i>
   <i type="logical" name="EVENONLYGW"> F  </i>
   <i type="int" name="NKREDLFX">     1</i>
   <i type="int" name="NKREDLFY">     1</i>
   <i type="int" name="NKREDLFZ">     1</i>
   <i type="int" name="MAXMEM">  1800</i>
   <i type="int" name="TELESCOPE">     0</i>
   <i type="int" name="TAUPAR">     1</i>
   <i type="int" name="OMEGAPAR">    -1</i>
   <i name="LAMBDA">      1.00000000</i>
  </separator>
  <separator name="External order field" >
   <i name="OFIELD_KAPPA">      0.00000000</i>
   <v name="OFIELD_K">      0.00000000      0.00000000      0.00000000</v>
   <i name="OFIELD_Q6_NEAR">      0.00000000</i>
   <i name="OFIELD_Q6_FAR">      0.00000000</i>
   <i name="OFIELD_A">      0.00000000</i>
  </separator>
 </parameters>
 <atominfo>
  <atoms>      64 </atoms>
  <types>       1 </types>
  <array name="atoms" >
   <dimension dim="1">ion</dimension>
   <field type="string">element</field>
   <field type="int">atomtype</field>
   <set>
    <rc><c>Ni</c><c>   1</c></rc>
    <rc><c>Ni</c><c>   1</c></rc>
    <rc><c>Ni</c><c>   1</c></rc>
    <rc><c>Ni</c><c>   1</c></rc>
    <rc><c>Ni</c><c>   1</c></rc>
    <rc><c>Ni</c><c>   1</c></rc>
    <rc><c>Ni</c><c>   1</c></rc>
    <rc><c>Ni</c><c>   1</c></rc>
    <rc><c>Ni</c><c>   1</c></rc>
    <rc><c>Ni</c><c>   1</c></rc>
    <rc><c>Ni</c><c>   1</c></rc>
    <rc><c>Ni</c><c>   1</c></rc>
    <rc><c>Ni</c><c>   1</c></rc>
    <rc><c>Ni</c><c>   1</c></rc>
    <rc><c>Ni</c><c>   1</c></rc>
    <rc><c>Ni</c><c>   1</c></rc>
    <rc><c>Ni</c><c>   1</c></rc>
    <rc><c>Ni</c><c>   1</c></rc>
    <rc><c>Ni</c><c>   1</c></rc>
    <rc><c>Ni</c><c>   1</c></rc>
    <rc><c>Ni</c><c>   1</c></rc>
    <rc><c>Ni</c><c>   1</c></rc>
    <rc><c>Ni</c><c>   1</c></rc>
    <rc><c>Ni</c><c>   1</c></rc>
    <rc><c>Ni</c><c>   1</c></rc>
    <rc><c>Ni</c><c>   1</c></rc>
    <rc><c>Ni</c><c>   1</c></rc>
    <rc><c>Ni</c><c>   1</c></rc>
    <rc><c>Ni</c><c>   1</c></rc>
    <rc><c>Ni</c><c>   1</c></rc>
    <rc><c>Ni</c><c>   1</c></rc>
    <rc><c>Ni</c><c>   1</c></rc>
    <rc><c>Ni</c><c>   1</c></rc>
    <rc><c>Ni</c><c>   1</c></rc>
    <rc><c>Ni</c><c>   1</c></rc>
    <rc><c>Ni</c><c>   1</c></rc>
    <rc><c>Ni</c><c>   1</c></rc>
    <rc><c>Ni</c><c>   1</c></rc>
    <rc><c>Ni</c><c>   1</c></rc>
    <rc><c>Ni</c><c>   1</c></rc>
    <rc><c>Ni</c><c>   1</c></rc>
    <rc><c>Ni</c><c>   1</c></rc>
    <rc><c>Ni</c><c>   1</c></rc>
    <rc><c>Ni</c><c>   1</c></rc>
    <rc><c>Ni</c><c>   1</c></rc>
    <rc><c>Ni</c><c>   1</c></rc>
    <rc><c>Ni</c><c>   1</c></rc>
    <rc><c>Ni</c><c>   1</c></rc>
    <rc><c>Ni</c><c>   1</c></rc>
    <rc><c>Ni</c><c>   1</c></rc>
    <rc><c>Ni</c><c>   1</c></rc>
    <rc><c>Ni</c><c>   1</c></rc>
    <rc><c>Ni</c><c>   1</c></rc>
    <rc><c>Ni</c><c>   1</c></rc>
    <rc><c>Ni</c><c>   1</c></rc>
    <rc><c>Ni</c><c>   1</c></rc>
    <rc><c>Ni</c><c>   1</c></rc>
    <rc><c>Ni</c><c>   1</c></rc>
    <rc><c>Ni</c><c>   1</c></rc>
    <rc><c>Ni</c><c>   1</c></rc>
    <rc><c>Ni</c><c>   1</c></rc>
    <rc><c>Ni</c><c>   1</c></rc>
    <rc><c>Ni</c><c>   1</c></rc>
    <rc><c>Ni</c><c>   1</c></rc>
   </set>
  </array>
  <array name="atomtypes" >
   <dimension dim="1">type</dimension>
   <field type="int">atomspertype</field>
   <field type="string">element</field>
   <field>mass</field>
   <field>valence</field>
   <field type="string">pseudopotential</field>
   <set>
    <rc><c>  64</c><c>Ni</c><c>     58.69000000</c><c>     16.00000000</c><c> PAW_PBE Ni_pv 06Sep2000                </c></rc>
   </set>
  </array>
 </atominfo>
 <structure name="initialpos" >
  <crystal>
   <varray name="basis" >
    <v>       0.00000000       6.73275000       6.73275000 </v>
    <v>       6.73275000       0.00000000       6.73275000 </v>
    <v>       6.73275000       6.73275000       0.00000000 </v>
   </varray>
   <i name="volume">    610.39007227 </i>
   <varray name="rec_basis" >
    <v>      -0.07426386       0.07426386       0.07426386 </v>
    <v>       0.07426386      -0.07426386       0.07426386 </v>
    <v>       0.07426386       0.07426386      -0.07426386 </v>
   </varray>
  </crystal>
  <varray name="positions" >
   <v>       0.00000000       0.00000000       0.00000000 </v>
   <v>       0.00000000       0.00000000       0.25000000 </v>
   <v>       0.00000000       0.00000000       0.50000000 </v>
   <v>       0.00000000       0.00000000       0.75000000 </v>
   <v>       0.00000000       0.25000000       0.00000000 </v>
   <v>       0.00000000       0.25000000       0.25000000 </v>
   <v>       0.00000000       0.25000000       0.50000000 </v>
   <v>       0.00000000       0.25000000       0.75000000 </v>
   <v>       0.00000000       0.50000000       0.00000000 </v>
   <v>       0.00000000       0.50000000       0.25000000 </v>
   <v>       0.00000000       0.50000000       0.50000000 </v>
   <v>       0.00000000       0.50000000       0.75000000 </v>
   <v>       0.00000000       0.75000000       0.00000000 </v>
   <v>       0.00000000       0.75000000       0.25000000 </v>
   <v>       0.00000000       0.75000000       0.50000000 </v>
   <v>       0.00000000       0.75000000       0.75000000 </v>
   <v>       0.25000000       0.00000000       0.00000000 </v>
   <v>       0.25000000       0.00000000       0.25000000 </v>
   <v>       0.25000000       0.00000000       0.50000000 </v>
   <v>       0.25000000       0.00000000       0.75000000 </v>
   <v>       0.25000000       0.25000000       0.00000000 </v>
   <v>       0.25000000       0.25000000       0.25000000 </v>
   <v>       0.25000000       0.25000000       0.50000000 </v>
   <v>       0.25000000       0.25000000       0.75000000 </v>
   <v>       0.25000000       0.50000000       0.00000000 </v>
   <v>       0.25000000       0.50000000       0.25000000 </v>
   <v>       0.25000000       0.50000000       0.50000000 </v>
   <v>       0.25000000       0.50000000       0.75000000 </v>
   <v>       0.25000000       0.75000000       0.00000000 </v>
   <v>       0.25000000       0.75000000       0.25000000 </v>
   <v>       0.25000000       0.75000000       0.50000000 </v>
   <v>       0.25000000       0.75000000       0.75000000 </v>
   <v>       0.50000000       0.00000000       0.00000000 </v>
   <v>       0.50000000       0.00000000       0.25000000 </v>
   <v>       0.50000000       0.00000000       0.50000000 </v>
   <v>       0.50000000       0.00000000       0.75000000 </v>
   <v>       0.50000000       0.25000000       0.00000000 </v>
   <v>       0.50000000       0.25000000       0.25000000 </v>
   <v>       0.50000000       0.25000000       0.50000000 </v>
   <v>       0.50000000       0.25000000       0.75000000 </v>
   <v>       0.50000000       0.50000000       0.00000000 </v>
   <v>       0.50000000       0.50000000       0.25000000 </v>
   <v>       0.50000000       0.50000000       0.50000000 </v>
   <v>       0.50000000       0.50000000       0.75000000 </v>
   <v>       0.50000000       0.75000000       0.00000000 </v>
   <v>       0.50000000       0.75000000       0.25000000 </v>
   <v>       0.50000000       0.75000000       0.50000000 </v>
   <v>       0.50000000       0.75000000       0.75000000 </v>
   <v>       0.75000000       0.00000000       0.00000000 </v>
   <v>       0.75000000       0.00000000       0.25000000 </v>
   <v>       0.75000000       0.00000000       0.50000000 </v>
   <v>       0.75000000       0.00000000       0.75000000 </v>
   <v>       0.75000000       0.25000000       0.00000000 </v>
   <v>       0.75000000       0.25000000       0.25000000 </v>
   <v>       0.75000000       0.25000000       0.50000000 </v>
   <v>       0.75000000       0.25000000       0.75000000 </v>
   <v>       0.75000000       0.50000000       0.00000000 </v>
   <v>       0.75000000       0.50000000       0.25000000 </v>
   <v>       0.75000000       0.50000000       0.50000000 </v>
   <v>       0.75000000       0.50000000       0.75000000 </v>
   <v>       0.75000000       0.75000000       0.00000000 </v>
   <v>       0.75000000       0.75000000       0.25000000 </v>
   <v>       0.75000000       0.75000000       0.50000000 </v>
   <v>       0.75000000       0.75000000       0.75000000 </v>
  </varray>
 </structure>
 <calculation>
  <scstep>
   <time name="dav">  352.41  352.12</time>
   <time name="total">  354.52  354.23</time>
   <energy>
    <i name="alphaZ">  11304.57052840 </i>
    <i name="ewald">-160660.78111336 </i>
    <i name="hartreedc"> -57619.62050546 </i>
    <i name="XCdc">   5752.46845394 </i>
    <i name="pawpsdc"> 172361.15642774 </i>
    <i name="pawaedc">-181272.45834873 </i>
    <i name="eentropy">     -0.00165726 </i>
    <i name="bandstr">    468.80666004 </i>
    <i name="atom"> 224013.29143063 </i>
    <i name="e_fr_energy">  14347.43187594 </i>
    <i name="e_wo_entrp">  14347.43353321 </i>
    <i name="e_0_energy">  14347.43242836 </i>
   </energy>
  </scstep>
  <scstep>
   <time name="dav">  317.38  317.12</time>
   <time name="total">  317.40  317.13</time>
   <energy>
    <i name="e_fr_energy">    944.29073364 </i>
    <i name="e_wo_entrp">    944.27696251 </i>
    <i name="e_0_energy">    944.28614327 </i>
   </energy>
  </scstep>
  <scstep>
   <time name="dav">  323.23  322.97</time>
   <time name="total">  323.25  322.98</time>
   <energy>
    <i name="e_fr_energy">   -353.95358730 </i>
    <i name="e_wo_entrp">   -353.94799065 </i>
    <i name="e_0_energy">   -353.95172175 </i>
   </energy>
  </scstep>
  <scstep>
   <time name="dav">  334.75  334.47</time>
   <time name="total">  334.76  334.49</time>
   <energy>
    <i name="e_fr_energy">   -419.49794553 </i>
    <i name="e_wo_entrp">   -419.54716084 </i>
    <i name="e_0_energy">   -419.51435063 </i>
   </energy>
  </scstep>
  <scstep>
   <time name="dav">  333.46  333.19</time>
   <time name="total">  347.36  347.07</time>
   <energy>
    <i name="e_fr_energy">   -420.45122297 </i>
    <i name="e_wo_entrp">   -420.50105482 </i>
    <i name="e_0_energy">   -420.46783358 </i>
   </energy>
  </scstep>
  <scstep>
   <time name="dav">  328.42  328.15</time>
   <time name="total">  344.88  344.59</time>
   <energy>
    <i name="e_fr_energy">   -376.12898143 </i>
    <i name="e_wo_entrp">   -375.83376462 </i>
    <i name="e_0_energy">   -376.03057582 </i>
   </energy>
  </scstep>
  <scstep>
   <time name="dav">  328.48  328.21</time>
   <time name="total">  344.98  344.70</time>
   <energy>
    <i name="e_fr_energy">   -359.06808482 </i>
    <i name="e_wo_entrp">   -358.80974319 </i>
    <i name="e_0_energy">   -358.98197094 </i>
   </energy>
  </scstep>
  <scstep>
   <time name="dav">  329.08  328.81</time>
   <time name="total">  345.53  345.24</time>
   <energy>
    <i name="e_fr_energy">   -358.96541637 </i>
    <i name="e_wo_entrp">   -358.69241313 </i>
    <i name="e_0_energy">   -358.87441529 </i>
   </energy>
  </scstep>
  <scstep>
   <time name="dav">  353.08  352.79</time>
   <time name="total">  369.72  369.42</time>
   <energy>
    <i name="e_fr_energy">   -358.94255974 </i>
    <i name="e_wo_entrp">   -358.69699524 </i>
    <i name="e_0_energy">   -358.86070490 </i>
   </energy>
  </scstep>
  <scstep>
   <time name="dav">  332.97  332.70</time>
   <time name="total">  349.66  349.37</time>
   <energy>
    <i name="e_fr_energy">   -358.94637642 </i>
    <i name="e_wo_entrp">   -358.70403441 </i>
    <i name="e_0_energy">   -358.86559575 </i>
   </energy>
  </scstep>
  <scstep>
   <time name="dav">  334.49  334.21</time>
   <time name="total">  350.62  350.33</time>
   <energy>
    <i name="e_fr_energy">   -358.94657015 </i>
    <i name="e_wo_entrp">   -358.70382916 </i>
    <i name="e_0_energy">   -358.86565649 </i>
   </energy>
  </scstep>
  <scstep>
   <time name="dav">  322.18  321.91</time>
   <time name="total">  338.18  337.90</time>
   <energy>
    <i name="e_fr_energy">   -358.94659005 </i>
    <i name="e_wo_entrp">   -358.70389836 </i>
    <i name="e_0_energy">   -358.86569282 </i>
   </energy>
  </scstep>
  <scstep>
   <time name="dav">  279.70  279.46</time>
   <time name="total">  295.82  295.58</time>
   <energy>
    <i name="e_fr_energy">   -358.94659111 </i>
    <i name="e_wo_entrp">   -358.70410930 </i>
    <i name="e_0_energy">   -358.86576384 </i>
   </energy>
  </scstep>
  <scstep>
   <time name="dav">  202.54  202.37</time>
   <time name="total">  218.66  218.48</time>
   <energy>
    <i name="e_fr_energy">   -358.94659464 </i>
    <i name="e_wo_entrp">   -358.70421409 </i>
    <i name="e_0_energy">   -358.86580112 </i>
   </energy>
  </scstep>
  <scstep>
   <time name="dav">  200.25  200.08</time>
   <time name="total">  202.34  202.18</time>
   <energy>
    <i name="alphaZ">  11304.57052840 </i>
    <i name="ewald">-160660.78111336 </i>
    <i name="hartreedc"> -55264.87709038 </i>
    <i name="XCdc">   5659.15976480 </i>
    <i name="pawpsdc"> 174346.97527944 </i>
    <i name="pawaedc">-183424.26548168 </i>
    <i name="eentropy">     -0.24233008 </i>
    <i name="bandstr"> -16332.77758294 </i>
    <i name="atom"> 224013.29143063 </i>
    <i name="e_fr_energy">   -358.94659517 </i>
    <i name="e_wo_entrp">   -358.70426509 </i>
    <i name="e_0_energy">   -358.86581847 </i>
   </energy>
  </scstep>
  <structure>
   <crystal>
    <varray name="basis" >
     <v>       0.00000000       6.73275000       6.73275000 </v>
     <v>       6.73275000       0.00000000       6.73275000 </v>
     <v>       6.73275000       6.73275000       0.00000000 </v>
    </varray>
    <i name="volume">    610.39007227 </i>
    <varray name="rec_basis" >
     <v>      -0.07426386       0.07426386       0.07426386 </v>
     <v>       0.07426386      -0.07426386       0.07426386 </v>
     <v>       0.07426386       0.07426386      -0.07426386 </v>
    </varray>
   </crystal>
   <varray name="positions" >
    <v>       0.00000000       0.00000000       0.00000000 </v>
    <v>       0.00000000       0.00000000       0.25000000 </v>
    <v>       0.00000000       0.00000000       0.50000000 </v>
    <v>       0.00000000       0.00000000       0.75000000 </v>
    <v>       0.00000000       0.25000000       0.00000000 </v>
    <v>       0.00000000       0.25000000       0.25000000 </v>
    <v>       0.00000000       0.25000000       0.50000000 </v>
    <v>       0.00000000       0.25000000       0.75000000 </v>
    <v>       0.00000000       0.50000000       0.00000000 </v>
    <v>       0.00000000       0.50000000       0.25000000 </v>
    <v>       0.00000000       0.50000000       0.50000000 </v>
    <v>       0.00000000       0.50000000       0.75000000 </v>
    <v>       0.00000000       0.75000000       0.00000000 </v>
    <v>       0.00000000       0.75000000       0.25000000 </v>
    <v>       0.00000000       0.75000000       0.50000000 </v>
    <v>       0.00000000       0.75000000       0.75000000 </v>
    <v>       0.25000000       0.00000000       0.00000000 </v>
    <v>       0.25000000       0.00000000       0.25000000 </v>
    <v>       0.25000000       0.00000000       0.50000000 </v>
    <v>       0.25000000       0.00000000       0.75000000 </v>
    <v>       0.25000000       0.25000000       0.00000000 </v>
    <v>       0.25000000       0.25000000       0.25000000 </v>
    <v>       0.25000000       0.25000000       0.50000000 </v>
    <v>       0.25000000       0.25000000       0.75000000 </v>
    <v>       0.25000000       0.50000000       0.00000000 </v>
    <v>       0.25000000       0.50000000       0.25000000 </v>
    <v>       0.25000000       0.50000000       0.50000000 </v>
    <v>       0.25000000       0.50000000       0.75000000 </v>
    <v>       0.25000000       0.75000000       0.00000000 </v>
    <v>       0.25000000       0.75000000       0.25000000 </v>
    <v>       0.25000000       0.75000000       0.50000000 </v>
    <v>       0.25000000       0.75000000       0.75000000 </v>
    <v>       0.50000000       0.00000000       0.00000000 </v>
    <v>       0.50000000       0.00000000       0.25000000 </v>
    <v>       0.50000000       0.00000000       0.50000000 </v>
    <v>       0.50000000       0.00000000       0.75000000 </v>
    <v>       0.50000000       0.25000000       0.00000000 </v>
    <v>       0.50000000       0.25000000       0.25000000 </v>
    <v>       0.50000000       0.25000000       0.50000000 </v>
    <v>       0.50000000       0.25000000       0.75000000 </v>
    <v>       0.50000000       0.50000000       0.00000000 </v>
    <v>       0.50000000       0.50000000       0.25000000 </v>
    <v>       0.50000000       0.50000000       0.50000000 </v>
    <v>       0.50000000       0.50000000       0.75000000 </v>
    <v>       0.50000000       0.75000000       0.00000000 </v>
    <v>       0.50000000       0.75000000       0.25000000 </v>
    <v>       0.50000000       0.75000000       0.50000000 </v>
    <v>       0.50000000       0.75000000       0.75000000 </v>
    <v>       0.75000000       0.00000000       0.00000000 </v>
    <v>       0.75000000       0.00000000       0.25000000 </v>
    <v>       0.75000000       0.00000000       0.50000000 </v>
    <v>       0.75000000       0.00000000       0.75000000 </v>
    <v>       0.75000000       0.25000000       0.00000000 </v>
    <v>       0.75000000       0.25000000       0.25000000 </v>
    <v>       0.75000000       0.25000000       0.50000000 </v>
    <v>       0.75000000       0.25000000       0.75000000 </v>
    <v>       0.75000000       0.50000000       0.00000000 </v>
    <v>       0.75000000       0.50000000       0.25000000 </v>
    <v>       0.75000000       0.50000000       0.50000000 </v>
    <v>       0.75000000       0.50000000       0.75000000 </v>
    <v>       0.75000000       0.75000000       0.00000000 </v>
    <v>       0.75000000       0.75000000       0.25000000 </v>
    <v>       0.75000000       0.75000000       0.50000000 </v>
    <v>       0.75000000       0.75000000       0.75000000 </v>
   </varray>
  </structure>
  <varray name="forces" >
   <v>       0.00000000       0.00000000      -0.00000000 </v>
   <v>       0.00000000       0.00000000       0.00000000 </v>
   <v>      -0.00000000      -0.00000000       0.00000000 </v>
   <v>      -0.00000000       0.00000000       0.00000000 </v>
   <v>       0.00000000       0.00000000      -0.00000000 </v>
   <v>      -0.00000000       0.00000000      -0.00000000 </v>
   <v>      -0.00000000      -0.00000000       0.00000000 </v>
   <v>      -0.00000000       0.00000000      -0.00000000 </v>
   <v>       0.00000000       0.00000000      -0.00000000 </v>
   <v>       0.00000000       0.00000000       0.00000000 </v>
   <v>      -0.00000000      -0.00000000       0.00000000 </v>
   <v>      -0.00000000      -0.00000000       0.00000000 </v>
   <v>      -0.00000000       0.00000000      -0.00000000 </v>
   <v>       0.00000000      -0.00000000      -0.00000000 </v>
   <v>       0.00000000       0.00000000       0.00000000 </v>
   <v>      -0.00000000      -0.00000000       0.00000000 </v>
   <v>       0.00000000       0.00000000      -0.00000000 </v>
   <v>       0.00000000       0.00000000       0.00000000 </v>
   <v>      -0.00000000       0.00000000      -0.00000000 </v>
   <v>       0.00000000       0.00000000       0.00000000 </v>
   <v>       0.00000000       0.00000000      -0.00000000 </v>
   <v>      -0.00000000       0.00000000       0.00000000 </v>
   <v>      -0.00000000      -0.00000000      -0.00000000 </v>
   <v>       0.00000000       0.00000000      -0.00000000 </v>
   <v>       0.00000000       0.00000000      -0.00000000 </v>
   <v>       0.00000000       0.00000000       0.00000000 </v>
   <v>       0.00000000      -0.00000000      -0.00000000 </v>
   <v>      -0.00000000      -0.00000000       0.00000000 </v>
   <v>      -0.00000000      -0.00000000       0.00000000 </v>
   <v>       0.00000000      -0.00000000      -0.00000000 </v>
   <v>      -0.00000000       0.00000000      -0.00000000 </v>
   <v>      -0.00000000      -0.00000000       0.00000000 </v>
   <v>       0.00000000       0.00000000      -0.00000000 </v>
   <v>      -0.00000000       0.00000000       0.00000000 </v>
   <v>      -0.00000000      -0.00000000       0.00000000 </v>
   <v>       0.00000000       0.00000000       0.00000000 </v>
   <v>       0.00000000       0.00000000      -0.00000000 </v>
   <v>      -0.00000000       0.00000000       0.00000000 </v>
   <v>      -0.00000000      -0.00000000       0.00000000 </v>
   <v>       0.00000000      -0.00000000      -0.00000000 </v>
   <v>      -0.00000000       0.00000000      -0.00000000 </v>
   <v>       0.00000000       0.00000000       0.00000000 </v>
   <v>      -0.00000000      -0.00000000       0.00000000 </v>
   <v>      -0.00000000      -0.00000000       0.00000000 </v>
   <v>       0.00000000       0.00000000       0.00000000 </v>
   <v>       0.00000000       0.00000000       0.00000000 </v>
   <v>       0.00000000      -0.00000000       0.00000000 </v>
   <v>       0.00000000      -0.00000000      -0.00000000 </v>
   <v>       0.00000000       0.00000000       0.00000000 </v>
   <v>      -0.00000000      -0.00000000       0.00000000 </v>
   <v>      -0.00000000      -0.00000000      -0.00000000 </v>
   <v>       0.00000000      -0.00000000       0.00000000 </v>
   <v>      -0.00000000       0.00000000      -0.00000000 </v>
   <v>      -0.00000000       0.00000000       0.00000000 </v>
   <v>      -0.00000000      -0.00000000      -0.00000000 </v>
   <v>       0.00000000      -0.00000000       0.00000000 </v>
   <v>      -0.00000000       0.00000000      -0.00000000 </v>
   <v>       0.00000000       0.00000000       0.00000000 </v>
   <v>       0.00000000      -0.00000000       0.00000000 </v>
   <v>      -0.00000000      -0.00000000       0.00000000 </v>
   <v>      -0.00000000       0.00000000      -0.00000000 </v>
   <v>       0.00000000      -0.00000000       0.00000000 </v>
   <v>       0.00000000       0.00000000      -0.00000000 </v>
   <v>      -0.00000000       0.00000000       0.00000000 </v>
  </varray>
  <varray name="stress" >
   <v>     195.22221874      -0.00000000      -0.00000000 </v>
   <v>      -0.00000000     195.22221874      -0.00000000 </v>
   <v>       0.00000000      -0.00000000     195.22221874 </v>
  </varray>
  <energy>
   <i name="e_fr_energy">   -358.94659517 </i>
   <i name="e_wo_entrp">   -358.86581847 </i>
   <i name="e_0_energy">     -0.24233008 </i>
  </energy>
  <kpoints>
   <generation param="Gamma">
    <v type="int" name="divisions">       3        3        3 </v>
    <v name="usershift">      0.00000000       0.00000000       0.00000000 </v>
    <v name="genvec1">      0.33333333       0.00000000       0.00000000 </v>
    <v name="genvec2">      0.00000000       0.33333333       0.00000000 </v>
    <v name="genvec3">      0.00000000       0.00000000       0.33333333 </v>
    <v name="shift">      0.00000000       0.00000000       0.00000000 </v>
   </generation>
   <varray name="kpointlist" >
    <v>       0.00000000       0.00000000       0.00000000 </v>
    <v>       0.33333333       0.00000000       0.00000000 </v>
    <v>       0.33333333       0.33333333       0.00000000 </v>
    <v>      -0.33333333       0.33333333       0.00000000 </v>
    <v>       0.00000000       0.33333333       0.33333333 </v>
    <v>      -0.33333333       0.33333333       0.33333333 </v>
   </varray>
   <varray name="weights" >
    <v>       0.03703704 </v>
    <v>       0.29629630 </v>
    <v>       0.14814815 </v>
    <v>       0.29629630 </v>
    <v>       0.07407407 </v>
    <v>       0.14814815 </v>
   </varray>
  </kpoints>
  <time name="totalsc"> 5277.77 5273.81</time>
 </calculation>
 <calculation>
  <scstep>
   <time name="dav">  591.65  591.16</time>
   <time name="total">  613.94  613.44</time>
   <energy>
    <i name="alphaZ">  11304.57052840 </i>
    <i name="ewald">-160660.06398227 </i>
    <i name="hartreedc"> -55265.62097595 </i>
    <i name="XCdc">   5659.16549271 </i>
    <i name="pawpsdc"> 174346.81180434 </i>
    <i name="pawaedc">-183424.08710131 </i>
    <i name="eentropy">     -0.24220257 </i>
    <i name="bandstr"> -16332.43530224 </i>
    <i name="atom"> 224013.29143063 </i>
    <i name="e_fr_energy">   -358.61030826 </i>
    <i name="e_wo_entrp">   -358.36810568 </i>
    <i name="e_0_energy">   -358.52957407 </i>
   </energy>
  </scstep>
  <scstep>
   <time name="dav">  490.24  489.83</time>
   <time name="total">  512.70  512.28</time>
   <energy>
    <i name="e_fr_energy">   -358.95016827 </i>
    <i name="e_wo_entrp">   -358.70889924 </i>
    <i name="e_0_energy">   -358.86974526 </i>
   </energy>
  </scstep>
  <scstep>
   <time name="dav">  560.86  560.40</time>
   <time name="total">  583.33  582.84</time>
   <energy>
    <i name="e_fr_energy">   -358.94434663 </i>
    <i name="e_wo_entrp">   -358.70226144 </i>
    <i name="e_0_energy">   -358.86365157 </i>
   </energy>
  </scstep>
  <scstep>
   <time name="dav">  560.35  559.89</time>
   <time name="total">  582.81  582.33</time>
   <energy>
    <i name="e_fr_energy">   -358.94743547 </i>
    <i name="e_wo_entrp">   -358.70557700 </i>
    <i name="e_0_energy">   -358.86681598 </i>
   </energy>
  </scstep>
  <scstep>
   <time name="dav">  505.23  504.81</time>
   <time name="total">  527.66  527.23</time>
   <energy>
    <i name="e_fr_energy">   -358.94034752 </i>
    <i name="e_wo_entrp">   -358.69819033 </i>
    <i name="e_0_energy">   -358.85962846 </i>
   </energy>
  </scstep>
  <scstep>
   <time name="dav">  544.54  544.09</time>
   <time name="total">  566.97  566.50</time>
   <energy>
    <i name="e_fr_energy">   -358.94018555 </i>
    <i name="e_wo_entrp">   -358.69800942 </i>
    <i name="e_0_energy">   -358.85946017 </i>
   </energy>
  </scstep>
  <scstep>
   <time name="dav">  521.58  521.15</time>
   <time name="total">  544.69  544.24</time>
   <energy>
    <i name="e_fr_energy">   -358.93996656 </i>
    <i name="e_wo_entrp">   -358.69778555 </i>
    <i name="e_0_energy">   -358.85923956 </i>
   </energy>
  </scstep>
  <scstep>
   <time name="dav">  528.96  528.52</time>
   <time name="total">  552.08  551.62</time>
   <energy>
    <i name="e_fr_energy">   -358.93978665 </i>
    <i name="e_wo_entrp">   -358.69759421 </i>
    <i name="e_0_energy">   -358.85905584 </i>
   </energy>
  </scstep>
  <scstep>
   <time name="dav">  540.28  539.83</time>
   <time name="total">  563.39  562.92</time>
   <energy>
    <i name="e_fr_energy">   -358.93981267 </i>
    <i name="e_wo_entrp">   -358.69761205 </i>
    <i name="e_0_energy">   -358.85907913 </i>
   </energy>
  </scstep>
  <scstep>
   <time name="dav">  582.23  581.75</time>
   <time name="total">  605.34  604.84</time>
   <energy>
    <i name="e_fr_energy">   -358.93954308 </i>
    <i name="e_wo_entrp">   -358.69732524 </i>
    <i name="e_0_energy">   -358.85880380 </i>
   </energy>
  </scstep>
  <scstep>
   <time name="dav">  562.87  562.40</time>
   <time name="total">  585.98  585.49</time>
   <energy>
    <i name="e_fr_energy">   -358.93946011 </i>
    <i name="e_wo_entrp">   -358.69723402 </i>
    <i name="e_0_energy">   -358.85871808 </i>
   </energy>
  </scstep>
  <scstep>
   <time name="dav">  544.67  544.22</time>
   <time name="total">  566.95  566.48</time>
   <energy>
    <i name="e_fr_energy">   -358.93946552 </i>
    <i name="e_wo_entrp">   -358.69724803 </i>
    <i name="e_0_energy">   -358.85872636 </i>
   </energy>
  </scstep>
  <scstep>
   <time name="dav">  498.62  498.20</time>
   <time name="total">  500.72  500.30</time>
   <energy>
    <i name="alphaZ">  11304.57052840 </i>
    <i name="ewald">-160660.06398227 </i>
    <i name="hartreedc"> -55265.59767364 </i>
    <i name="XCdc">   5659.16408104 </i>
    <i name="pawpsdc"> 174347.09978736 </i>
    <i name="pawaedc">-183424.37892794 </i>
    <i name="eentropy">     -0.24221667 </i>
    <i name="bandstr"> -16332.78249144 </i>
    <i name="atom"> 224013.29143063 </i>
    <i name="e_fr_energy">   -358.93946453 </i>
    <i name="e_wo_entrp">   -358.69724785 </i>
    <i name="e_0_energy">   -358.85872564 </i>
   </energy>
  </scstep>
  <structure>
   <crystal>
    <varray name="basis" >
     <v>       0.00000000       6.73275000       6.73275000 </v>
     <v>       6.73275000       0.00000000       6.73275000 </v>
     <v>       6.73275000       6.73275000       0.00000000 </v>
    </varray>
    <i name="volume">    610.39007227 </i>
    <varray name="rec_basis" >
     <v>      -0.07426386       0.07426386       0.07426386 </v>
     <v>       0.07426386      -0.07426386       0.07426386 </v>
     <v>       0.07426386       0.07426386      -0.07426386 </v>
    </varray>
   </crystal>
   <varray name="positions" >
    <v>      -0.00222792       0.00222792       0.00222792 </v>
    <v>       0.00000000       0.00000000       0.25000000 </v>
    <v>       0.00000000       0.00000000       0.50000000 </v>
    <v>       0.00000000       0.00000000       0.75000000 </v>
    <v>       0.00000000       0.25000000       0.00000000 </v>
    <v>       0.00000000       0.25000000       0.25000000 </v>
    <v>       0.00000000       0.25000000       0.50000000 </v>
    <v>       0.00000000       0.25000000       0.75000000 </v>
    <v>       0.00000000       0.50000000       0.00000000 </v>
    <v>       0.00000000       0.50000000       0.25000000 </v>
    <v>       0.00000000       0.50000000       0.50000000 </v>
    <v>       0.00000000       0.50000000       0.75000000 </v>
    <v>       0.00000000       0.75000000       0.00000000 </v>
    <v>       0.00000000       0.75000000       0.25000000 </v>
    <v>       0.00000000       0.75000000       0.50000000 </v>
    <v>       0.00000000       0.75000000       0.75000000 </v>
    <v>       0.25000000       0.00000000       0.00000000 </v>
    <v>       0.25000000       0.00000000       0.25000000 </v>
    <v>       0.25000000       0.00000000       0.50000000 </v>
    <v>       0.25000000       0.00000000       0.75000000 </v>
    <v>       0.25000000       0.25000000       0.00000000 </v>
    <v>       0.25000000       0.25000000       0.25000000 </v>
    <v>       0.25000000       0.25000000       0.50000000 </v>
    <v>       0.25000000       0.25000000       0.75000000 </v>
    <v>       0.25000000       0.50000000       0.00000000 </v>
    <v>       0.25000000       0.50000000       0.25000000 </v>
    <v>       0.25000000       0.50000000       0.50000000 </v>
    <v>       0.25000000       0.50000000       0.75000000 </v>
    <v>       0.25000000       0.75000000       0.00000000 </v>
    <v>       0.25000000       0.75000000       0.25000000 </v>
    <v>       0.25000000       0.75000000       0.50000000 </v>
    <v>       0.25000000       0.75000000       0.75000000 </v>
    <v>       0.50000000       0.00000000       0.00000000 </v>
    <v>       0.50000000       0.00000000       0.25000000 </v>
    <v>       0.50000000       0.00000000       0.50000000 </v>
    <v>       0.50000000       0.00000000       0.75000000 </v>
    <v>       0.50000000       0.25000000       0.00000000 </v>
    <v>       0.50000000       0.25000000       0.25000000 </v>
    <v>       0.50000000       0.25000000       0.50000000 </v>
    <v>       0.50000000       0.25000000       0.75000000 </v>
    <v>       0.50000000       0.50000000       0.00000000 </v>
    <v>       0.50000000       0.50000000       0.25000000 </v>
    <v>       0.50000000       0.50000000       0.50000000 </v>
    <v>       0.50000000       0.50000000       0.75000000 </v>
    <v>       0.50000000       0.75000000       0.00000000 </v>
    <v>       0.50000000       0.75000000       0.25000000 </v>
    <v>       0.50000000       0.75000000       0.50000000 </v>
    <v>       0.50000000       0.75000000       0.75000000 </v>
    <v>       0.75000000       0.00000000       0.00000000 </v>
    <v>       0.75000000       0.00000000       0.25000000 </v>
    <v>       0.75000000       0.00000000       0.50000000 </v>
    <v>       0.75000000       0.00000000       0.75000000 </v>
    <v>       0.75000000       0.25000000       0.00000000 </v>
    <v>       0.75000000       0.25000000       0.25000000 </v>
    <v>       0.75000000       0.25000000       0.50000000 </v>
    <v>       0.75000000       0.25000000       0.75000000 </v>
    <v>       0.75000000       0.50000000       0.00000000 </v>
    <v>       0.75000000       0.50000000       0.25000000 </v>
    <v>       0.75000000       0.50000000       0.50000000 </v>
    <v>       0.75000000       0.50000000       0.75000000 </v>
    <v>       0.75000000       0.75000000       0.00000000 </v>
    <v>       0.75000000       0.75000000       0.25000000 </v>
    <v>       0.75000000       0.75000000       0.50000000 </v>
    <v>       0.75000000       0.75000000       0.75000000 </v>
   </varray>
  </structure>
  <varray name="forces" >
   <v>      -0.47212981       0.00000000      -0.00000000 </v>
   <v>       0.05893066       0.07020303      -0.00000000 </v>
   <v>      -0.00012740      -0.00067189      -0.00000000 </v>
   <v>       0.05404369       0.06314203      -0.00000000 </v>
   <v>       0.05893066       0.00000000       0.07020303 </v>
   <v>       0.00327372       0.00186474       0.00186474 </v>
   <v>       0.00052732       0.00186515      -0.00073040 </v>
   <v>      -0.00447364       0.00058639      -0.00058639 </v>
   <v>      -0.00012740      -0.00000000      -0.00067189 </v>
   <v>       0.00052732      -0.00073040       0.00186515 </v>
   <v>       0.00004520       0.00000000      -0.00000000 </v>
   <v>       0.00044348      -0.00068830       0.00188115 </v>
   <v>       0.05404369       0.00000000       0.06314203 </v>
   <v>      -0.00447364      -0.00058639       0.00058639 </v>
   <v>       0.00044348       0.00188115      -0.00068830 </v>
   <v>       0.00319756       0.00188057       0.00188057 </v>
   <v>      -0.00447364      -0.00058639      -0.00058639 </v>
   <v>       0.00044348       0.00188115       0.00068830 </v>
   <v>       0.00319756       0.00188057      -0.00188057 </v>
   <v>       0.05404369       0.00000000      -0.06314203 </v>
   <v>       0.00044348       0.00068830       0.00188115 </v>
   <v>       0.00022143       0.00000000      -0.00000000 </v>
   <v>       0.00052732       0.00073040      -0.00186515 </v>
   <v>      -0.00107768       0.00000000      -0.00002844 </v>
   <v>       0.00319756      -0.00188057       0.00188057 </v>
   <v>       0.00052732      -0.00186515       0.00073040 </v>
   <v>      -0.00075643       0.00001816       0.00001816 </v>
   <v>       0.00039974       0.00000000      -0.00013664 </v>
   <v>       0.05404369      -0.06314203      -0.00000000 </v>
   <v>      -0.00107768      -0.00002844      -0.00000000 </v>
   <v>       0.00039974      -0.00013664      -0.00000000 </v>
   <v>       0.00500702       0.00000000      -0.00000000 </v>
   <v>       0.00004520       0.00000000      -0.00000000 </v>
   <v>       0.00044348      -0.00068830      -0.00188115 </v>
   <v>      -0.00012740       0.00000000       0.00067189 </v>
   <v>       0.00052732      -0.00073040      -0.00186515 </v>
   <v>       0.00044348      -0.00188115      -0.00068830 </v>
   <v>       0.00327372      -0.00186474      -0.00186474 </v>
   <v>       0.00034316       0.00000000       0.00013550 </v>
   <v>      -0.00075643      -0.00001816       0.00001816 </v>
   <v>      -0.00012740       0.00067189      -0.00000000 </v>
   <v>       0.00034316       0.00013550      -0.00000000 </v>
   <v>      -0.00123099       0.00000000      -0.00000000 </v>
   <v>       0.00039974       0.00013664      -0.00000000 </v>
   <v>       0.00052732      -0.00186515      -0.00073040 </v>
   <v>      -0.00075643       0.00001816      -0.00001816 </v>
   <v>       0.00039974       0.00000000       0.00013664 </v>
   <v>       0.00319756      -0.00188057      -0.00188057 </v>
   <v>      -0.00447364       0.00058639       0.00058639 </v>
   <v>       0.05893066       0.00000000      -0.07020303 </v>
   <v>       0.00327372       0.00186474      -0.00186474 </v>
   <v>       0.00052732       0.00186515       0.00073040 </v>
   <v>       0.05893066      -0.07020303      -0.00000000 </v>
   <v>       0.00504061       0.00000000      -0.00000000 </v>
   <v>       0.00034316      -0.00013550      -0.00000000 </v>
   <v>      -0.00107768       0.00002844      -0.00000000 </v>
   <v>       0.00327372      -0.00186474       0.00186474 </v>
   <v>       0.00034316       0.00000000      -0.00013550 </v>
   <v>      -0.00075643      -0.00001816      -0.00001816 </v>
   <v>       0.00044348      -0.00188115       0.00068830 </v>
   <v>       0.00052732       0.00073040       0.00186515 </v>
   <v>      -0.00107768       0.00000000       0.00002844 </v>
   <v>       0.00044348       0.00068830      -0.00188115 </v>
   <v>       0.00022143       0.00000000      -0.00000000 </v>
  </varray>
  <varray name="stress" >
   <v>     195.27092899      -0.00000000       0.00000000 </v>
   <v>      -0.00000000     195.26393858       0.00000000 </v>
   <v>       0.00000000       0.00000000     195.26393858 </v>
  </varray>
  <energy>
   <i name="e_fr_energy">   -358.93946453 </i>
   <i name="e_wo_entrp">   -358.85872564 </i>
   <i name="e_0_energy">     -0.24221667 </i>
  </energy>
  <kpoints>
   <generation param="Gamma">
    <v type="int" name="divisions">       3        3        3 </v>
    <v name="usershift">      0.00000000       0.00000000       0.00000000 </v>
    <v name="genvec1">      0.33333333       0.00000000       0.00000000 </v>
    <v name="genvec2">      0.00000000       0.33333333       0.00000000 </v>
    <v name="genvec3">      0.00000000       0.00000000       0.33333333 </v>
    <v name="shift">      0.00000000       0.00000000       0.00000000 </v>
   </generation>
   <varray name="kpointlist" >
    <v>       0.00000000       0.00000000       0.00000000 </v>
    <v>       0.33333333       0.00000000       0.00000000 </v>
    <v>       0.33333333       0.33333333       0.00000000 </v>
    <v>      -0.33333333       0.33333333       0.00000000 </v>
    <v>       0.00000000       0.33333333       0.33333333 </v>
    <v>      -0.33333333       0.33333333       0.33333333 </v>
   </varray>
   <varray name="weights" >
    <v>       0.03703704 </v>
    <v>       0.29629630 </v>
    <v>       0.14814815 </v>
    <v>       0.29629630 </v>
    <v>       0.07407407 </v>
    <v>       0.14814815 </v>
   </varray>
  </kpoints>
  <time name="totalsc"> 7927.35 7920.79</time>
 </calculation>
 <calculation>
  <scstep>
   <time name="dav">  593.53  593.04</time>
   <time name="total">  615.82  615.30</time>
   <energy>
    <i name="alphaZ">  11304.57052840 </i>
    <i name="ewald">-160660.60182085 </i>
    <i name="hartreedc"> -55265.09265904 </i>
    <i name="XCdc">   5659.16245094 </i>
    <i name="pawpsdc"> 174347.05958777 </i>
    <i name="pawaedc">-183424.33764657 </i>
    <i name="eentropy">     -0.24232848 </i>
    <i name="bandstr"> -16332.61048145 </i>
    <i name="atom"> 224013.29143063 </i>
    <i name="e_fr_energy">   -358.80093866 </i>
    <i name="e_wo_entrp">   -358.55861018 </i>
    <i name="e_0_energy">   -358.72016250 </i>
   </energy>
  </scstep>
  <scstep>
   <time name="dav">  487.40  486.99</time>
   <time name="total">  509.66  509.23</time>
   <energy>
    <i name="e_fr_energy">   -358.94556676 </i>
    <i name="e_wo_entrp">   -358.70343098 </i>
    <i name="e_0_energy">   -358.86485483 </i>
   </energy>
  </scstep>
  <scstep>
   <time name="dav">  559.07  558.61</time>
   <time name="total">  581.36  580.88</time>
   <energy>
    <i name="e_fr_energy">   -358.94486332 </i>
    <i name="e_wo_entrp">   -358.70255554 </i>
    <i name="e_0_energy">   -358.86409406 </i>
   </energy>
  </scstep>
  <scstep>
   <time name="dav">  570.73  570.26</time>
   <time name="total">  593.01  592.52</time>
   <energy>
    <i name="e_fr_energy">   -358.94582615 </i>
    <i name="e_wo_entrp">   -358.70356328 </i>
    <i name="e_0_energy">   -358.86507186 </i>
   </energy>
  </scstep>
  <scstep>
   <time name="dav">  503.06  502.64</time>
   <time name="total">  525.33  524.89</time>
   <energy>
    <i name="e_fr_energy">   -358.94492457 </i>
    <i name="e_wo_entrp">   -358.70262029 </i>
    <i name="e_0_energy">   -358.86415648 </i>
   </energy>
  </scstep>
  <scstep>
   <time name="dav">  523.83  523.40</time>
   <time name="total">  546.12  545.66</time>
   <energy>
    <i name="e_fr_energy">   -358.94488084 </i>
    <i name="e_wo_entrp">   -358.70257611 </i>
    <i name="e_0_energy">   -358.86411259 </i>
   </energy>
  </scstep>
  <scstep>
   <time name="dav">  532.90  532.46</time>
   <time name="total">  556.00  555.54</time>
   <energy>
    <i name="e_fr_energy">   -358.94485432 </i>
    <i name="e_wo_entrp">   -358.70254599 </i>
    <i name="e_0_energy">   -358.86408488 </i>
   </energy>
  </scstep>
  <scstep>
   <time name="dav">  535.46  535.02</time>
   <time name="total">  558.57  558.10</time>
   <energy>
    <i name="e_fr_energy">   -358.94482887 </i>
    <i name="e_wo_entrp">   -358.70251870 </i>
    <i name="e_0_energy">   -358.86405881 </i>
   </energy>
  </scstep>
  <scstep>
   <time name="dav">  537.88  537.44</time>
   <time name="total">  560.98  560.52</time>
   <energy>
    <i name="e_fr_energy">   -358.94485615 </i>
    <i name="e_wo_entrp">   -358.70254507 </i>
    <i name="e_0_energy">   -358.86408579 </i>
   </energy>
  </scstep>
  <scstep>
   <time name="dav">  531.99  531.55</time>
   <time name="total">  555.10  554.64</time>
   <energy>
    <i name="e_fr_energy">   -358.94480985 </i>
    <i name="e_wo_entrp">   -358.70249593 </i>
    <i name="e_0_energy">   -358.86403854 </i>
   </energy>
  </scstep>
  <scstep>
   <time name="dav">  571.12  570.65</time>
   <time name="total">  594.23  593.74</time>
   <energy>
    <i name="e_fr_energy">   -358.94479932 </i>
    <i name="e_wo_entrp">   -358.70248537 </i>
    <i name="e_0_energy">   -358.86402800 </i>
   </energy>
  </scstep>
  <scstep>
   <time name="dav">  464.73  464.35</time>
   <time name="total">  466.84  466.45</time>
   <energy>
    <i name="alphaZ">  11304.57052840 </i>
    <i name="ewald">-160660.60182085 </i>
    <i name="hartreedc"> -55265.07902105 </i>
    <i name="XCdc">   5659.16183397 </i>
    <i name="pawpsdc"> 174346.82966743 </i>
    <i name="pawaedc">-183424.10860484 </i>
    <i name="eentropy">     -0.24231112 </i>
    <i name="bandstr"> -16332.76650233 </i>
    <i name="atom"> 224013.29143063 </i>
    <i name="e_fr_energy">   -358.94479975 </i>
    <i name="e_wo_entrp">   -358.70248863 </i>
    <i name="e_0_energy">   -358.86402938 </i>
   </energy>
  </scstep>
  <structure>
   <crystal>
    <varray name="basis" >
     <v>       0.00000000       6.73275000       6.73275000 </v>
     <v>       6.73275000       0.00000000       6.73275000 </v>
     <v>       6.73275000       6.73275000       0.00000000 </v>
    </varray>
    <i name="volume">    610.39007227 </i>
    <varray name="rec_basis" >
     <v>      -0.07426386       0.07426386       0.07426386 </v>
     <v>       0.07426386      -0.07426386       0.07426386 </v>
     <v>       0.07426386       0.07426386      -0.07426386 </v>
    </varray>
   </crystal>
   <varray name="positions" >
    <v>      -0.00111396       0.00111396       0.00111396 </v>
    <v>       0.00000000       0.00000000       0.25000000 </v>
    <v>       0.00000000       0.00000000       0.50000000 </v>
    <v>       0.00000000       0.00000000       0.75000000 </v>
    <v>       0.00000000       0.25000000       0.00000000 </v>
    <v>       0.00000000       0.25000000       0.25000000 </v>
    <v>       0.00000000       0.25000000       0.50000000 </v>
    <v>       0.00000000       0.25000000       0.75000000 </v>
    <v>       0.00000000       0.50000000       0.00000000 </v>
    <v>       0.00000000       0.50000000       0.25000000 </v>
    <v>       0.00000000       0.50000000       0.50000000 </v>
    <v>       0.00000000       0.50000000       0.75000000 </v>
    <v>       0.00000000       0.75000000       0.00000000 </v>
    <v>       0.00000000       0.75000000       0.25000000 </v>
    <v>       0.00000000       0.75000000       0.50000000 </v>
    <v>       0.00000000       0.75000000       0.75000000 </v>
    <v>       0.25000000       0.00000000       0.00000000 </v>
    <v>       0.25000000       0.00000000       0.25000000 </v>
    <v>       0.25000000       0.00000000       0.50000000 </v>
    <v>       0.25000000       0.00000000       0.75000000 </v>
    <v>       0.25000000       0.25000000       0.00000000 </v>
    <v>       0.25000000       0.25000000       0.25000000 </v>
    <v>       0.25000000       0.25000000       0.50000000 </v>
    <v>       0.25000000       0.25000000       0.75000000 </v>
    <v>       0.25000000       0.50000000       0.00000000 </v>
    <v>       0.25000000       0.50000000       0.25000000 </v>
    <v>       0.25000000       0.50000000       0.50000000 </v>
    <v>       0.25000000       0.50000000       0.75000000 </v>
    <v>       0.25000000       0.75000000       0.00000000 </v>
    <v>       0.25000000       0.75000000       0.25000000 </v>
    <v>       0.25000000       0.75000000       0.50000000 </v>
    <v>       0.25000000       0.75000000       0.75000000 </v>
    <v>       0.50000000       0.00000000       0.00000000 </v>
    <v>       0.50000000       0.00000000       0.25000000 </v>
    <v>       0.50000000       0.00000000       0.50000000 </v>
    <v>       0.50000000       0.00000000       0.75000000 </v>
    <v>       0.50000000       0.25000000       0.00000000 </v>
    <v>       0.50000000       0.25000000       0.25000000 </v>
    <v>       0.50000000       0.25000000       0.50000000 </v>
    <v>       0.50000000       0.25000000       0.75000000 </v>
    <v>       0.50000000       0.50000000       0.00000000 </v>
    <v>       0.50000000       0.50000000       0.25000000 </v>
    <v>       0.50000000       0.50000000       0.50000000 </v>
    <v>       0.50000000       0.50000000       0.75000000 </v>
    <v>       0.50000000       0.75000000       0.00000000 </v>
    <v>       0.50000000       0.75000000       0.25000000 </v>
    <v>       0.50000000       0.75000000       0.50000000 </v>
    <v>       0.50000000       0.75000000       0.75000000 </v>
    <v>       0.75000000       0.00000000       0.00000000 </v>
    <v>       0.75000000       0.00000000       0.25000000 </v>
    <v>       0.75000000       0.00000000       0.50000000 </v>
    <v>       0.75000000       0.00000000       0.75000000 </v>
    <v>       0.75000000       0.25000000       0.00000000 </v>
    <v>       0.75000000       0.25000000       0.25000000 </v>
    <v>       0.75000000       0.25000000       0.50000000 </v>
    <v>       0.75000000       0.25000000       0.75000000 </v>
    <v>       0.75000000       0.50000000       0.00000000 </v>
    <v>       0.75000000       0.50000000       0.25000000 </v>
    <v>       0.75000000       0.50000000       0.50000000 </v>
    <v>       0.75000000       0.50000000       0.75000000 </v>
    <v>       0.75000000       0.75000000       0.00000000 </v>
    <v>       0.75000000       0.75000000       0.25000000 </v>
    <v>       0.75000000       0.75000000       0.50000000 </v>
    <v>       0.75000000       0.75000000       0.75000000 </v>
   </varray>
  </structure>
  <varray name="forces" >
   <v>      -0.23877351       0.00000000      -0.00000000 </v>
   <v>       0.02908954       0.03455332      -0.00000000 </v>
   <v>      -0.00001744      -0.00024910      -0.00000000 </v>
   <v>       0.02782686       0.03261080      -0.00000000 </v>
   <v>       0.02908954       0.00000000       0.03455332 </v>
   <v>       0.00162121       0.00103150       0.00103150 </v>
   <v>       0.00022097       0.00094838      -0.00030379 </v>
   <v>      -0.00219291       0.00005992      -0.00005992 </v>
   <v>      -0.00001744       0.00000000      -0.00024910 </v>
   <v>       0.00022097      -0.00030379       0.00094838 </v>
   <v>       0.00009949       0.00000000      -0.00000000 </v>
   <v>       0.00026976      -0.00045572       0.00094777 </v>
   <v>       0.02782686       0.00000000       0.03261080 </v>
   <v>      -0.00219291      -0.00005992       0.00005992 </v>
   <v>       0.00026976       0.00094777      -0.00045572 </v>
   <v>       0.00156767       0.00087552       0.00087552 </v>
   <v>      -0.00219291      -0.00005992      -0.00005992 </v>
   <v>       0.00026976       0.00094777       0.00045572 </v>
   <v>       0.00156767       0.00087552      -0.00087552 </v>
   <v>       0.02782686       0.00000000      -0.03261080 </v>
   <v>       0.00026976       0.00045572       0.00094777 </v>
   <v>       0.00004777       0.00000000      -0.00000000 </v>
   <v>       0.00022097       0.00030379      -0.00094838 </v>
   <v>      -0.00050072       0.00000000      -0.00002904 </v>
   <v>       0.00156767      -0.00087552       0.00087552 </v>
   <v>       0.00022097      -0.00094838       0.00030379 </v>
   <v>      -0.00029211      -0.00007123      -0.00007123 </v>
   <v>       0.00026605       0.00000000      -0.00012551 </v>
   <v>       0.02782686      -0.03261080      -0.00000000 </v>
   <v>      -0.00050072      -0.00002904      -0.00000000 </v>
   <v>       0.00026605      -0.00012551      -0.00000000 </v>
   <v>       0.00247776       0.00000000      -0.00000000 </v>
   <v>       0.00009949       0.00000000      -0.00000000 </v>
   <v>       0.00026976      -0.00045572      -0.00094777 </v>
   <v>      -0.00001744       0.00000000       0.00024910 </v>
   <v>       0.00022097      -0.00030379      -0.00094838 </v>
   <v>       0.00026976      -0.00094777      -0.00045572 </v>
   <v>       0.00162121      -0.00103150      -0.00103150 </v>
   <v>       0.00014325       0.00000000      -0.00001732 </v>
   <v>      -0.00029211       0.00007123      -0.00007123 </v>
   <v>      -0.00001744       0.00024910      -0.00000000 </v>
   <v>       0.00014325      -0.00001732      -0.00000000 </v>
   <v>      -0.00054815       0.00000000      -0.00000000 </v>
   <v>       0.00026605       0.00012551      -0.00000000 </v>
   <v>       0.00022097      -0.00094838      -0.00030379 </v>
   <v>      -0.00029211      -0.00007123       0.00007123 </v>
   <v>       0.00026605       0.00000000       0.00012551 </v>
   <v>       0.00156767      -0.00087552      -0.00087552 </v>
   <v>      -0.00219291       0.00005992       0.00005992 </v>
   <v>       0.02908954       0.00000000      -0.03455332 </v>
   <v>       0.00162121       0.00103150      -0.00103150 </v>
   <v>       0.00022097       0.00094838       0.00030379 </v>
   <v>       0.02908954      -0.03455332      -0.00000000 </v>
   <v>       0.00257800       0.00000000      -0.00000000 </v>
   <v>       0.00014325       0.00001732      -0.00000000 </v>
   <v>      -0.00050072       0.00002904      -0.00000000 </v>
   <v>       0.00162121      -0.00103150       0.00103150 </v>
   <v>       0.00014325       0.00000000       0.00001732 </v>
   <v>      -0.00029211       0.00007123       0.00007123 </v>
   <v>       0.00026976      -0.00094777       0.00045572 </v>
   <v>       0.00022097       0.00030379       0.00094838 </v>
   <v>      -0.00050072       0.00000000       0.00002904 </v>
   <v>       0.00026976       0.00045572      -0.00094777 </v>
   <v>       0.00004777       0.00000000      -0.00000000 </v>
  </varray>
  <varray name="stress" >
   <v>     195.21566594       0.00000000       0.00000000 </v>
   <v>      -0.00000000     195.22226522       0.00000000 </v>
   <v>       0.00000000       0.00000000     195.22226522 </v>
  </varray>
  <energy>
   <i name="e_fr_energy">   -358.94479975 </i>
   <i name="e_wo_entrp">   -358.86402938 </i>
   <i name="e_0_energy">     -0.24231112 </i>
  </energy>
  <kpoints>
   <generation param="Gamma">
    <v type="int" name="divisions">       3        3        3 </v>
    <v name="usershift">      0.00000000       0.00000000       0.00000000 </v>
    <v name="genvec1">      0.33333333       0.00000000       0.00000000 </v>
    <v name="genvec2">      0.00000000       0.33333333       0.00000000 </v>
    <v name="genvec3">      0.00000000       0.00000000       0.33333333 </v>
    <v name="shift">      0.00000000       0.00000000       0.00000000 </v>
   </generation>
   <varray name="kpointlist" >
    <v>       0.00000000       0.00000000       0.00000000 </v>
    <v>       0.33333333       0.00000000       0.00000000 </v>
    <v>       0.33333333       0.33333333       0.00000000 </v>
    <v>      -0.33333333       0.33333333       0.00000000 </v>
    <v>       0.00000000       0.33333333       0.33333333 </v>
    <v>      -0.33333333       0.33333333       0.33333333 </v>
   </varray>
   <varray name="weights" >
    <v>       0.03703704 </v>
    <v>       0.29629630 </v>
    <v>       0.14814815 </v>
    <v>       0.29629630 </v>
    <v>       0.07407407 </v>
    <v>       0.14814815 </v>
   </varray>
  </kpoints>
  <time name="totalsc"> 7282.90 7276.96</time>
 </calculation>
 <calculation>
  <scstep>
   <time name="dav">  594.82  594.33</time>
   <time name="total">  617.10  616.59</time>
   <energy>
    <i name="alphaZ">  11304.57052840 </i>
    <i name="ewald">-160660.60182085 </i>
    <i name="hartreedc"> -55265.13038779 </i>
    <i name="XCdc">   5659.16438563 </i>
    <i name="pawpsdc"> 174346.82458442 </i>
    <i name="pawaedc">-183424.10342371 </i>
    <i name="eentropy">     -0.24229794 </i>
    <i name="bandstr"> -16332.42709665 </i>
    <i name="atom"> 224013.29143063 </i>
    <i name="e_fr_energy">   -358.65409785 </i>
    <i name="e_wo_entrp">   -358.41179992 </i>
    <i name="e_0_energy">   -358.57333188 </i>
   </energy>
  </scstep>
  <scstep>
   <time name="dav">  490.84  490.43</time>
   <time name="total">  513.29  512.86</time>
   <energy>
    <i name="e_fr_energy">   -358.95386540 </i>
    <i name="e_wo_entrp">   -358.71233579 </i>
    <i name="e_0_energy">   -358.87335553 </i>
   </energy>
  </scstep>
  <scstep>
   <time name="dav">  544.79  544.34</time>
   <time name="total">  567.25  566.78</time>
   <energy>
    <i name="e_fr_energy">   -358.94860166 </i>
    <i name="e_wo_entrp">   -358.70637195 </i>
    <i name="e_0_energy">   -358.86785842 </i>
   </energy>
  </scstep>
  <scstep>
   <time name="dav">  567.54  567.07</time>
   <time name="total">  589.99  589.50</time>
   <energy>
    <i name="e_fr_energy">   -358.95134681 </i>
    <i name="e_wo_entrp">   -358.70931846 </i>
    <i name="e_0_energy">   -358.87067069 </i>
   </energy>
  </scstep>
  <scstep>
   <time name="dav">  503.85  503.43</time>
   <time name="total">  526.30  525.87</time>
   <energy>
    <i name="e_fr_energy">   -358.94553102 </i>
    <i name="e_wo_entrp">   -358.70325033 </i>
    <i name="e_0_energy">   -358.86477079 </i>
   </energy>
  </scstep>
  <scstep>
   <time name="dav">  547.33  546.87</time>
   <time name="total">  569.79  569.31</time>
   <energy>
    <i name="e_fr_energy">   -358.94539832 </i>
    <i name="e_wo_entrp">   -358.70310545 </i>
    <i name="e_0_energy">   -358.86463403 </i>
   </energy>
  </scstep>
  <scstep>
   <time name="dav">  521.04  520.61</time>
   <time name="total">  543.54  543.09</time>
   <energy>
    <i name="e_fr_energy">   -358.94519741 </i>
    <i name="e_wo_entrp">   -358.70289998 </i>
    <i name="e_0_energy">   -358.86443160 </i>
   </energy>
  </scstep>
  <scstep>
   <time name="dav">  529.48  529.04</time>
   <time name="total">  551.88  551.42</time>
   <energy>
    <i name="e_fr_energy">   -358.94505483 </i>
    <i name="e_wo_entrp">   -358.70275059 </i>
    <i name="e_0_energy">   -358.86428675 </i>
   </energy>
  </scstep>
  <scstep>
   <time name="dav">  542.64  542.19</time>
   <time name="total">  565.11  564.65</time>
   <energy>
    <i name="e_fr_energy">   -358.94510896 </i>
    <i name="e_wo_entrp">   -358.70280047 </i>
    <i name="e_0_energy">   -358.86433946 </i>
   </energy>
  </scstep>
  <scstep>
   <time name="dav">  568.02  567.55</time>
   <time name="total">  590.50  590.01</time>
   <energy>
    <i name="e_fr_energy">   -358.94486402 </i>
    <i name="e_wo_entrp">   -358.70254218 </i>
    <i name="e_0_energy">   -358.86409007 </i>
   </energy>
  </scstep>
  <scstep>
   <time name="dav">  559.49  559.03</time>
   <time name="total">  581.98  581.51</time>
   <energy>
    <i name="e_fr_energy">   -358.94479557 </i>
    <i name="e_wo_entrp">   -358.70246879 </i>
    <i name="e_0_energy">   -358.86401998 </i>
   </energy>
  </scstep>
  <scstep>
   <time name="dav">  512.47  512.05</time>
   <time name="total">  534.78  534.34</time>
   <energy>
    <i name="e_fr_energy">   -358.94480064 </i>
    <i name="e_wo_entrp">   -358.70248209 </i>
    <i name="e_0_energy">   -358.86402779 </i>
   </energy>
  </scstep>
  <scstep>
   <time name="dav">  487.60  487.21</time>
   <time name="total">  489.71  489.31</time>
   <energy>
    <i name="alphaZ">  11304.57052840 </i>
    <i name="ewald">-160660.60182085 </i>
    <i name="hartreedc"> -55265.07928003 </i>
    <i name="XCdc">   5659.16189181 </i>
    <i name="pawpsdc"> 174346.85660883 </i>
    <i name="pawaedc">-183424.13311820 </i>
    <i name="eentropy">     -0.24231777 </i>
    <i name="bandstr"> -16332.76872250 </i>
    <i name="atom"> 224013.29143063 </i>
    <i name="e_fr_energy">   -358.94479968 </i>
    <i name="e_wo_entrp">   -358.70248191 </i>
    <i name="e_0_energy">   -358.86402709 </i>
   </energy>
  </scstep>
  <structure>
   <crystal>
    <varray name="basis" >
     <v>       0.00000000       6.73275000       6.73275000 </v>
     <v>       6.73275000       0.00000000       6.73275000 </v>
     <v>       6.73275000       6.73275000       0.00000000 </v>
    </varray>
    <i name="volume">    610.39007227 </i>
    <varray name="rec_basis" >
     <v>      -0.07426386       0.07426386       0.07426386 </v>
     <v>       0.07426386      -0.07426386       0.07426386 </v>
     <v>       0.07426386       0.07426386      -0.07426386 </v>
    </varray>
   </crystal>
   <varray name="positions" >
    <v>       0.00111396      -0.00111396      -0.00111396 </v>
    <v>       0.00000000       0.00000000       0.25000000 </v>
    <v>       0.00000000       0.00000000       0.50000000 </v>
    <v>       0.00000000       0.00000000       0.75000000 </v>
    <v>       0.00000000       0.25000000       0.00000000 </v>
    <v>       0.00000000       0.25000000       0.25000000 </v>
    <v>       0.00000000       0.25000000       0.50000000 </v>
    <v>       0.00000000       0.25000000       0.75000000 </v>
    <v>       0.00000000       0.50000000       0.00000000 </v>
    <v>       0.00000000       0.50000000       0.25000000 </v>
    <v>       0.00000000       0.50000000       0.50000000 </v>
    <v>       0.00000000       0.50000000       0.75000000 </v>
    <v>       0.00000000       0.75000000       0.00000000 </v>
    <v>       0.00000000       0.75000000       0.25000000 </v>
    <v>       0.00000000       0.75000000       0.50000000 </v>
    <v>       0.00000000       0.75000000       0.75000000 </v>
    <v>       0.25000000       0.00000000       0.00000000 </v>
    <v>       0.25000000       0.00000000       0.25000000 </v>
    <v>       0.25000000       0.00000000       0.50000000 </v>
    <v>       0.25000000       0.00000000       0.75000000 </v>
    <v>       0.25000000       0.25000000       0.00000000 </v>
    <v>       0.25000000       0.25000000       0.25000000 </v>
    <v>       0.25000000       0.25000000       0.50000000 </v>
    <v>       0.25000000       0.25000000       0.75000000 </v>
    <v>       0.25000000       0.50000000       0.00000000 </v>
    <v>       0.25000000       0.50000000       0.25000000 </v>
    <v>       0.25000000       0.50000000       0.50000000 </v>
    <v>       0.25000000       0.50000000       0.75000000 </v>
    <v>       0.25000000       0.75000000       0.00000000 </v>
    <v>       0.25000000       0.75000000       0.25000000 </v>
    <v>       0.25000000       0.75000000       0.50000000 </v>
    <v>       0.25000000       0.75000000       0.75000000 </v>
    <v>       0.50000000       0.00000000       0.00000000 </v>
    <v>       0.50000000       0.00000000       0.25000000 </v>
    <v>       0.50000000       0.00000000       0.50000000 </v>
    <v>       0.50000000       0.00000000       0.75000000 </v>
    <v>       0.50000000       0.25000000       0.00000000 </v>
    <v>       0.50000000       0.25000000       0.25000000 </v>
    <v>       0.50000000       0.25000000       0.50000000 </v>
    <v>       0.50000000       0.25000000       0.75000000 </v>
    <v>       0.50000000       0.50000000       0.00000000 </v>
    <v>       0.50000000       0.50000000       0.25000000 </v>
    <v>       0.50000000       0.50000000       0.50000000 </v>
    <v>       0.50000000       0.50000000       0.75000000 </v>
    <v>       0.50000000       0.75000000       0.00000000 </v>
    <v>       0.50000000       0.75000000       0.25000000 </v>
    <v>       0.50000000       0.75000000       0.50000000 </v>
    <v>       0.50000000       0.75000000       0.75000000 </v>
    <v>       0.75000000       0.00000000       0.00000000 </v>
    <v>       0.75000000       0.00000000       0.25000000 </v>
    <v>       0.75000000       0.00000000       0.50000000 </v>
    <v>       0.75000000       0.00000000       0.75000000 </v>
    <v>       0.75000000       0.25000000       0.00000000 </v>
    <v>       0.75000000       0.25000000       0.25000000 </v>
    <v>       0.75000000       0.25000000       0.50000000 </v>
    <v>       0.75000000       0.25000000       0.75000000 </v>
    <v>       0.75000000       0.50000000       0.00000000 </v>
    <v>       0.75000000       0.50000000       0.25000000 </v>
    <v>       0.75000000       0.50000000       0.50000000 </v>
    <v>       0.75000000       0.50000000       0.75000000 </v>
    <v>       0.75000000       0.75000000       0.00000000 </v>
    <v>       0.75000000       0.75000000       0.25000000 </v>
    <v>       0.75000000       0.75000000       0.50000000 </v>
    <v>       0.75000000       0.75000000       0.75000000 </v>
   </varray>
  </structure>
  <varray name="forces" >
   <v>       0.24081077      -0.00000000      -0.00000000 </v>
   <v>      -0.02770700      -0.03241646      -0.00000000 </v>
   <v>       0.00005379       0.00041691      -0.00000000 </v>
   <v>      -0.02892426      -0.03419315      -0.00000000 </v>
   <v>      -0.02770700      -0.00000000      -0.03241646 </v>
   <v>      -0.00165816      -0.00092657      -0.00092657 </v>
   <v>      -0.00030668      -0.00090038       0.00032152 </v>
   <v>       0.00216021       0.00013948      -0.00013948 </v>
   <v>       0.00005379      -0.00000000       0.00041691 </v>
   <v>      -0.00030668       0.00032152      -0.00090038 </v>
   <v>      -0.00013816      -0.00000000      -0.00000000 </v>
   <v>      -0.00035803       0.00036461      -0.00092535 </v>
   <v>      -0.02892426      -0.00000000      -0.03419315 </v>
   <v>       0.00216021      -0.00013948       0.00013948 </v>
   <v>      -0.00035803      -0.00092535       0.00036461 </v>
   <v>      -0.00165548      -0.00089089      -0.00089089 </v>
   <v>       0.00216021      -0.00013948      -0.00013948 </v>
   <v>      -0.00035803      -0.00092535      -0.00036461 </v>
   <v>      -0.00165548      -0.00089089       0.00089089 </v>
   <v>      -0.02892426      -0.00000000       0.03419315 </v>
   <v>      -0.00035803      -0.00036461      -0.00092535 </v>
   <v>      -0.00018127      -0.00000000      -0.00000000 </v>
   <v>      -0.00030668      -0.00032152       0.00090038 </v>
   <v>       0.00041111      -0.00000000      -0.00003489 </v>
   <v>      -0.00165548       0.00089089      -0.00089089 </v>
   <v>      -0.00030668       0.00090038      -0.00032152 </v>
   <v>       0.00028203      -0.00000485      -0.00000485 </v>
   <v>      -0.00023315      -0.00000000       0.00007407 </v>
   <v>      -0.02892426       0.03419315      -0.00000000 </v>
   <v>       0.00041111      -0.00003489      -0.00000000 </v>
   <v>      -0.00023315       0.00007407      -0.00000000 </v>
   <v>      -0.00258069      -0.00000000      -0.00000000 </v>
   <v>      -0.00013816      -0.00000000      -0.00000000 </v>
   <v>      -0.00035803       0.00036461       0.00092535 </v>
   <v>       0.00005379      -0.00000000      -0.00041691 </v>
   <v>      -0.00030668       0.00032152       0.00090038 </v>
   <v>      -0.00035803       0.00092535       0.00036461 </v>
   <v>      -0.00165816       0.00092657       0.00092657 </v>
   <v>      -0.00027650      -0.00000000      -0.00009540 </v>
   <v>       0.00028203       0.00000485      -0.00000485 </v>
[...]
       <r>    26.4750     0.0000   646.0000 </r>
       <r>    26.7665     0.0000   646.0000 </r>
       <r>    27.0580     0.0000   646.0000 </r>
       <r>    27.3495     0.0000   646.0000 </r>
       <r>    27.6410     0.0000   646.0000 </r>
       <r>    27.9325     0.0000   646.0000 </r>
       <r>    28.2240     0.0000   646.0000 </r>
       <r>    28.5154     0.0000   646.0000 </r>
       <r>    28.8069     0.0000   646.0000 </r>
      </set>
      <set comment="spin 2">
       <r>   -58.6401     0.0000     0.0000 </r>
       <r>   -58.3486     0.0000     0.0000 </r>
       <r>   -58.0571     0.0000     0.0000 </r>
       <r>   -57.7656     0.0000     0.0000 </r>
       <r>   -57.4741     0.0000     0.0000 </r>
       <r>   -57.1826     0.0000     0.0000 </r>
       <r>   -56.8911     0.0000     0.0000 </r>
       <r>   -56.5996     0.0000     0.0000 </r>
       <r>   -56.3081     0.0000     0.0000 </r>
       <r>   -56.0167     0.0000     0.0000 </r>
       <r>   -55.7252    -0.0000    -0.0000 </r>
       <r>   -55.4337    -0.0000    -0.0000 </r>
       <r>   -55.1422    -0.0000    -0.0000 </r>
       <r>   -54.8507    -0.0000    -0.0000 </r>
       <r>   -54.5592    -0.0021    -0.0006 </r>
       <r>   -54.2677    -1.9574    -0.5712 </r>
       <r>   -53.9762    14.7692     3.7339 </r>
       <r>   -53.6847   424.3050   127.4146 </r>
       <r>   -53.3932   234.3289   195.7191 </r>
       <r>   -53.1018   -12.6481   192.0323 </r>
       <r>   -52.8103    -0.1109   192.0000 </r>
       <r>   -52.5188    -0.0000   192.0000 </r>
       <r>   -52.2273    -0.0000   192.0000 </r>
       <r>   -51.9358     0.0000   192.0000 </r>
       <r>   -51.6443     0.0000   192.0000 </r>
       <r>   -51.3528     0.0000   192.0000 </r>
       <r>   -51.0613     0.0000   192.0000 </r>
       <r>   -50.7698     0.0000   192.0000 </r>
       <r>   -50.4783     0.0000   192.0000 </r>
       <r>   -50.1869     0.0000   192.0000 </r>
       <r>   -49.8954     0.0000   192.0000 </r>
       <r>   -49.6039     0.0000   192.0000 </r>
       <r>   -49.3124     0.0000   192.0000 </r>
       <r>   -49.0209     0.0000   192.0000 </r>
       <r>   -48.7294     0.0000   192.0000 </r>
       <r>   -48.4379     0.0000   192.0000 </r>
       <r>   -48.1464     0.0000   192.0000 </r>
       <r>   -47.8549     0.0000   192.0000 </r>
       <r>   -47.5634     0.0000   192.0000 </r>
       <r>   -47.2720     0.0000   192.0000 </r>
       <r>   -46.9805     0.0000   192.0000 </r>
       <r>   -46.6890     0.0000   192.0000 </r>
       <r>   -46.3975     0.0000   192.0000 </r>
       <r>   -46.1060     0.0000   192.0000 </r>
       <r>   -45.8145     0.0000   192.0000 </r>
       <r>   -45.5230     0.0000   192.0000 </r>
       <r>   -45.2315     0.0000   192.0000 </r>
       <r>   -44.9400     0.0000   192.0000 </r>
       <r>   -44.6485     0.0000   192.0000 </r>
       <r>   -44.3571     0.0000   192.0000 </r>
       <r>   -44.0656     0.0000   192.0000 </r>
       <r>   -43.7741     0.0000   192.0000 </r>
       <r>   -43.4826     0.0000   192.0000 </r>
       <r>   -43.1911     0.0000   192.0000 </r>
       <r>   -42.8996     0.0000   192.0000 </r>
       <r>   -42.6081     0.0000   192.0000 </r>
       <r>   -42.3166     0.0000   192.0000 </r>
       <r>   -42.0251     0.0000   192.0000 </r>
       <r>   -41.7336     0.0000   192.0000 </r>
       <r>   -41.4422     0.0000   192.0000 </r>
       <r>   -41.1507     0.0000   192.0000 </r>
       <r>   -40.8592     0.0000   192.0000 </r>
       <r>   -40.5677     0.0000   192.0000 </r>
       <r>   -40.2762     0.0000   192.0000 </r>
       <r>   -39.9847     0.0000   192.0000 </r>
       <r>   -39.6932     0.0000   192.0000 </r>
       <r>   -39.4017     0.0000   192.0000 </r>
       <r>   -39.1102     0.0000   192.0000 </r>
       <r>   -38.8187     0.0000   192.0000 </r>
       <r>   -38.5273     0.0000   192.0000 </r>
       <r>   -38.2358     0.0000   192.0000 </r>
       <r>   -37.9443     0.0000   192.0000 </r>
       <r>   -37.6528     0.0000   192.0000 </r>
       <r>   -37.3613     0.0000   192.0000 </r>
       <r>   -37.0698     0.0000   192.0000 </r>
       <r>   -36.7783     0.0000   192.0000 </r>
       <r>   -36.4868     0.0000   192.0000 </r>
       <r>   -36.1953     0.0000   192.0000 </r>
       <r>   -35.9038     0.0000   192.0000 </r>
       <r>   -35.6124     0.0000   192.0000 </r>
       <r>   -35.3209     0.0000   192.0000 </r>
       <r>   -35.0294     0.0000   192.0000 </r>
       <r>   -34.7379     0.0000   192.0000 </r>
       <r>   -34.4464     0.0000   192.0000 </r>
       <r>   -34.1549     0.0000   192.0000 </r>
       <r>   -33.8634     0.0000   192.0000 </r>
       <r>   -33.5719     0.0000   192.0000 </r>
       <r>   -33.2804     0.0000   192.0000 </r>
       <r>   -32.9889     0.0000   192.0000 </r>
       <r>   -32.6975     0.0000   192.0000 </r>
       <r>   -32.4060     0.0000   192.0000 </r>
       <r>   -32.1145     0.0000   192.0000 </r>
       <r>   -31.8230     0.0000   192.0000 </r>
       <r>   -31.5315     0.0000   192.0000 </r>
       <r>   -31.2400     0.0000   192.0000 </r>
       <r>   -30.9485     0.0000   192.0000 </r>
       <r>   -30.6570     0.0000   192.0000 </r>
       <r>   -30.3655     0.0000   192.0000 </r>
       <r>   -30.0740     0.0000   192.0000 </r>
       <r>   -29.7826     0.0000   192.0000 </r>
       <r>   -29.4911     0.0000   192.0000 </r>
       <r>   -29.1996     0.0000   192.0000 </r>
       <r>   -28.9081     0.0000   192.0000 </r>
       <r>   -28.6166     0.0000   192.0000 </r>
       <r>   -28.3251     0.0000   192.0000 </r>
       <r>   -28.0336     0.0000   192.0000 </r>
       <r>   -27.7421     0.0000   192.0000 </r>
       <r>   -27.4506     0.0000   192.0000 </r>
       <r>   -27.1591     0.0000   192.0000 </r>
       <r>   -26.8677     0.0000   192.0000 </r>
       <r>   -26.5762     0.0000   192.0000 </r>
       <r>   -26.2847     0.0000   192.0000 </r>
       <r>   -25.9932     0.0000   192.0000 </r>
       <r>   -25.7017     0.0000   192.0000 </r>
       <r>   -25.4102     0.0000   192.0000 </r>
       <r>   -25.1187     0.0000   192.0000 </r>
       <r>   -24.8272     0.0000   192.0000 </r>
       <r>   -24.5357     0.0000   192.0000 </r>
       <r>   -24.2442     0.0000   192.0000 </r>
       <r>   -23.9528     0.0000   192.0000 </r>
       <r>   -23.6613     0.0000   192.0000 </r>
       <r>   -23.3698     0.0000   192.0000 </r>
       <r>   -23.0783     0.0000   192.0000 </r>
       <r>   -22.7868     0.0000   192.0000 </r>
       <r>   -22.4953     0.0000   192.0000 </r>
       <r>   -22.2038     0.0000   192.0000 </r>
       <r>   -21.9123     0.0000   192.0000 </r>
       <r>   -21.6208     0.0000   192.0000 </r>
       <r>   -21.3293     0.0000   192.0000 </r>
       <r>   -21.0379     0.0000   192.0000 </r>
       <r>   -20.7464     0.0000   192.0000 </r>
       <r>   -20.4549     0.0000   192.0000 </r>
       <r>   -20.1634     0.0000   192.0000 </r>
       <r>   -19.8719     0.0000   192.0000 </r>
       <r>   -19.5804     0.0000   192.0000 </r>
       <r>   -19.2889     0.0000   192.0000 </r>
       <r>   -18.9974     0.0000   192.0000 </r>
       <r>   -18.7059     0.0000   192.0000 </r>
       <r>   -18.4144     0.0000   192.0000 </r>
       <r>   -18.1230     0.0000   192.0000 </r>
       <r>   -17.8315     0.0000   192.0000 </r>
       <r>   -17.5400     0.0000   192.0000 </r>
       <r>   -17.2485     0.0000   192.0000 </r>
       <r>   -16.9570     0.0000   192.0000 </r>
       <r>   -16.6655     0.0000   192.0000 </r>
       <r>   -16.3740     0.0000   192.0000 </r>
       <r>   -16.0825     0.0000   192.0000 </r>
       <r>   -15.7910     0.0000   192.0000 </r>
       <r>   -15.4995     0.0000   192.0000 </r>
       <r>   -15.2081     0.0000   192.0000 </r>
       <r>   -14.9166     0.0000   192.0000 </r>
       <r>   -14.6251     0.0000   192.0000 </r>
       <r>   -14.3336     0.0000   192.0000 </r>
       <r>   -14.0421     0.0000   192.0000 </r>
       <r>   -13.7506     0.0000   192.0000 </r>
       <r>   -13.4591     0.0000   192.0000 </r>
       <r>   -13.1676     0.0000   192.0000 </r>
       <r>   -12.8761     0.0000   192.0000 </r>
       <r>   -12.5846     0.0000   192.0000 </r>
       <r>   -12.2932     0.0000   192.0000 </r>
       <r>   -12.0017     0.0000   192.0000 </r>
       <r>   -11.7102     0.0000   192.0000 </r>
       <r>   -11.4187     0.0000   192.0000 </r>
       <r>   -11.1272     0.0000   192.0000 </r>
       <r>   -10.8357     0.0000   192.0000 </r>
       <r>   -10.5442     0.0000   192.0000 </r>
       <r>   -10.2527     0.0000   192.0000 </r>
       <r>    -9.9612     0.0000   192.0000 </r>
       <r>    -9.6697     0.0000   192.0000 </r>
       <r>    -9.3783     0.0000   192.0000 </r>
       <r>    -9.0868     0.0000   192.0000 </r>
       <r>    -8.7953     0.0000   192.0000 </r>
       <r>    -8.5038     0.0000   192.0000 </r>
       <r>    -8.2123     0.0000   192.0000 </r>
       <r>    -7.9208     0.0000   192.0000 </r>
       <r>    -7.6293     0.0000   192.0000 </r>
       <r>    -7.3378     0.0000   192.0000 </r>
       <r>    -7.0463     0.0000   192.0000 </r>
       <r>    -6.7548     0.0000   192.0000 </r>
       <r>    -6.4634     0.0000   192.0000 </r>
       <r>    -6.1719     0.0000   192.0000 </r>
       <r>    -5.8804     0.0000   192.0000 </r>
       <r>    -5.5889     0.0000   192.0000 </r>
       <r>    -5.2974     0.0000   192.0000 </r>
       <r>    -5.0059     0.0000   192.0000 </r>
       <r>    -4.7144     0.0000   192.0000 </r>
       <r>    -4.4229     0.0000   192.0000 </r>
       <r>    -4.1314     0.0000   192.0000 </r>
       <r>    -3.8399     0.0000   192.0000 </r>
       <r>    -3.5485     0.0000   192.0000 </r>
       <r>    -3.2570     0.0000   192.0000 </r>
       <r>    -2.9655     0.0000   192.0000 </r>
       <r>    -2.6740     0.0000   192.0000 </r>
       <r>    -2.3825     0.0000   192.0000 </r>
       <r>    -2.0910    -0.0000   192.0000 </r>
       <r>    -1.7995    -0.0000   192.0000 </r>
       <r>    -1.5080    -0.0000   192.0000 </r>
       <r>    -1.2165    -0.0000   192.0000 </r>
       <r>    -0.9250    -0.0001   192.0000 </r>
       <r>    -0.6336    -0.0049   191.9985 </r>
       <r>    -0.3421     0.0490   192.0128 </r>
       <r>    -0.0506     1.0325   192.3138 </r>
       <r>     0.2409     0.9064   192.5780 </r>
       <r>     0.5324     1.4885   193.0119 </r>
       <r>     0.8239     3.6855   194.0862 </r>
       <r>     1.1154     0.5572   194.2486 </r>
       <r>     1.4069     2.6126   195.0101 </r>
       <r>     1.6984     4.3169   196.2684 </r>
       <r>     1.9899     3.3714   197.2512 </r>
       <r>     2.2813     3.4868   198.2675 </r>
       <r>     2.5728     1.1657   198.6073 </r>
       <r>     2.8643     9.3752   201.3401 </r>
       <r>     3.1558     4.1712   202.5559 </r>
       <r>     3.4473     6.1367   204.3447 </r>
       <r>     3.7388     3.0722   205.2402 </r>
       <r>     4.0303    12.2624   208.8146 </r>
       <r>     4.3218    14.6551   213.0864 </r>
       <r>     4.6133    20.9558   219.1948 </r>
       <r>     4.9048    25.9928   226.7714 </r>
       <r>     5.1962    35.4613   237.1081 </r>
       <r>     5.4877    37.6381   248.0792 </r>
       <r>     5.7792    46.7774   261.7144 </r>
       <r>     6.0707    49.2681   276.0755 </r>
       <r>     6.3622    42.4802   288.4580 </r>
       <r>     6.6537    43.3920   301.1064 </r>
       <r>     6.9452    57.0828   317.7454 </r>
       <r>     7.2367    61.2637   335.6032 </r>
       <r>     7.5282    72.7687   356.8145 </r>
       <r>     7.8197    81.4499   380.5564 </r>
       <r>     8.1111    58.7452   397.6800 </r>
       <r>     8.4026    53.7787   413.3559 </r>
       <r>     8.6941    71.5943   434.2250 </r>
       <r>     8.9856    56.4391   450.6764 </r>
       <r>     9.2771    66.6892   470.1156 </r>
       <r>     9.5686    63.0085   488.4820 </r>
       <r>     9.8601    96.0469   516.4787 </r>
       <r>    10.1516    41.6726   528.6258 </r>
       <r>    10.4431    20.7238   534.6666 </r>
       <r>    10.7346    11.5504   538.0335 </r>
       <r>    11.0260     2.5074   538.7643 </r>
       <r>    11.3175     8.1027   541.1262 </r>
       <r>    11.6090    11.5048   544.4797 </r>
       <r>    11.9005    11.9135   547.9524 </r>
       <r>    12.1920     9.9971   550.8665 </r>
       <r>    12.4835     4.9663   552.3141 </r>
       <r>    12.7750     6.0630   554.0814 </r>
       <r>    13.0665     8.5647   556.5779 </r>
       <r>    13.3580     6.8954   558.5878 </r>
       <r>    13.6495    11.7969   562.0265 </r>
       <r>    13.9409     2.1140   562.6427 </r>
       <r>    14.2324     8.9685   565.2570 </r>
       <r>    14.5239     8.8515   567.8371 </r>
       <r>    14.8154    -0.2223   567.7723 </r>
       <r>    15.1069     0.0190   567.7778 </r>
       <r>    15.3984    11.7557   571.2045 </r>
       <r>    15.6899     2.7680   572.0114 </r>
       <r>    15.9814     3.6499   573.0753 </r>
       <r>    16.2729     2.3504   573.7604 </r>
       <r>    16.5644     6.9345   575.7817 </r>
       <r>    16.8558     3.0320   576.6655 </r>
       <r>    17.1473     8.1402   579.0383 </r>
       <r>    17.4388    10.3582   582.0576 </r>
       <r>    17.7303     8.6510   584.5793 </r>
       <r>    18.0218     7.0106   586.6228 </r>
       <r>    18.3133    12.0578   590.1375 </r>
       <r>    18.6048     5.4028   591.7124 </r>
       <r>    18.8963    13.5206   595.6535 </r>
       <r>    19.1878     4.6985   597.0231 </r>
       <r>    19.4793     7.7690   599.2877 </r>
       <r>    19.7707     4.3332   600.5508 </r>
       <r>    20.0622     6.0614   602.3176 </r>
       <r>    20.3537     8.6334   604.8341 </r>
       <r>    20.6452     7.2793   606.9560 </r>
       <r>    20.9367     8.6573   609.4795 </r>
       <r>    21.2282     8.4236   611.9349 </r>
       <r>    21.5197    10.0790   614.8728 </r>
       <r>    21.8112    13.1761   618.7135 </r>
       <r>    22.1027    17.0583   623.6858 </r>
       <r>    22.3942     6.3921   625.5490 </r>
       <r>    22.6856    14.0455   629.6431 </r>
       <r>    22.9771     9.5665   632.4317 </r>
       <r>    23.2686     9.0234   635.0619 </r>
       <r>    23.5601     2.8709   635.8987 </r>
       <r>    23.8516    11.2822   639.1874 </r>
       <r>    24.1431    17.0053   644.1443 </r>
       <r>    24.4346     4.2198   645.3743 </r>
       <r>    24.7261     0.6843   645.5738 </r>
       <r>    25.0176     1.5208   646.0171 </r>
       <r>    25.3091    -0.0568   646.0005 </r>
       <r>    25.6005    -0.0017   646.0000 </r>
       <r>    25.8920    -0.0000   646.0000 </r>
       <r>    26.1835    -0.0000   646.0000 </r>
       <r>    26.4750     0.0000   646.0000 </r>
       <r>    26.7665     0.0000   646.0000 </r>
       <r>    27.0580     0.0000   646.0000 </r>
       <r>    27.3495     0.0000   646.0000 </r>
       <r>    27.6410     0.0000   646.0000 </r>
       <r>    27.9325     0.0000   646.0000 </r>
       <r>    28.2240     0.0000   646.0000 </r>
       <r>    28.5154     0.0000   646.0000 </r>
       <r>    28.8069     0.0000   646.0000 </r>
      </set>
     </set>
    </array>
   </total>
  </dos>
 </calculation>
 <structure name="finalpos" >
  <crystal>
   <varray name="basis" >
    <v>       0.00000000       6.73275000       6.73275000 </v>
    <v>       6.73275000       0.00000000       6.73275000 </v>
    <v>       6.73275000       6.73275000       0.00000000 </v>
   </varray>
   <i name="volume">    610.39007227 </i>
   <varray name="rec_basis" >
    <v>      -0.07426386       0.07426386       0.07426386 </v>
    <v>       0.07426386      -0.07426386       0.07426386 </v>
    <v>       0.07426386       0.07426386      -0.07426386 </v>
   </varray>
  </crystal>
  <varray name="positions" >
   <v>       0.00222792      -0.00222792      -0.00222792 </v>
   <v>       0.00000000       0.00000000       0.25000000 </v>
   <v>       0.00000000       0.00000000       0.50000000 </v>
   <v>       0.00000000       0.00000000       0.75000000 </v>
   <v>       0.00000000       0.25000000       0.00000000 </v>
   <v>       0.00000000       0.25000000       0.25000000 </v>
   <v>       0.00000000       0.25000000       0.50000000 </v>
   <v>       0.00000000       0.25000000       0.75000000 </v>
   <v>       0.00000000       0.50000000       0.00000000 </v>
   <v>       0.00000000       0.50000000       0.25000000 </v>
   <v>       0.00000000       0.50000000       0.50000000 </v>
   <v>       0.00000000       0.50000000       0.75000000 </v>
   <v>       0.00000000       0.75000000       0.00000000 </v>
   <v>       0.00000000       0.75000000       0.25000000 </v>
   <v>       0.00000000       0.75000000       0.50000000 </v>
   <v>       0.00000000       0.75000000       0.75000000 </v>
   <v>       0.25000000       0.00000000       0.00000000 </v>
   <v>       0.25000000       0.00000000       0.25000000 </v>
   <v>       0.25000000       0.00000000       0.50000000 </v>
   <v>       0.25000000       0.00000000       0.75000000 </v>
   <v>       0.25000000       0.25000000       0.00000000 </v>
   <v>       0.25000000       0.25000000       0.25000000 </v>
   <v>       0.25000000       0.25000000       0.50000000 </v>
   <v>       0.25000000       0.25000000       0.75000000 </v>
   <v>       0.25000000       0.50000000       0.00000000 </v>
   <v>       0.25000000       0.50000000       0.25000000 </v>
   <v>       0.25000000       0.50000000       0.50000000 </v>
   <v>       0.25000000       0.50000000       0.75000000 </v>
   <v>       0.25000000       0.75000000       0.00000000 </v>
   <v>       0.25000000       0.75000000       0.25000000 </v>
   <v>       0.25000000       0.75000000       0.50000000 </v>
   <v>       0.25000000       0.75000000       0.75000000 </v>
   <v>       0.50000000       0.00000000       0.00000000 </v>
   <v>       0.50000000       0.00000000       0.25000000 </v>
   <v>       0.50000000       0.00000000       0.50000000 </v>
   <v>       0.50000000       0.00000000       0.75000000 </v>
   <v>       0.50000000       0.25000000       0.00000000 </v>
   <v>       0.50000000       0.25000000       0.25000000 </v>
   <v>       0.50000000       0.25000000       0.50000000 </v>
   <v>       0.50000000       0.25000000       0.75000000 </v>
   <v>       0.50000000       0.50000000       0.00000000 </v>
   <v>       0.50000000       0.50000000       0.25000000 </v>
   <v>       0.50000000       0.50000000       0.50000000 </v>
   <v>       0.50000000       0.50000000       0.75000000 </v>
   <v>       0.50000000       0.75000000       0.00000000 </v>
   <v>       0.50000000       0.75000000       0.25000000 </v>
   <v>       0.50000000       0.75000000       0.50000000 </v>
   <v>       0.50000000       0.75000000       0.75000000 </v>
   <v>       0.75000000       0.00000000       0.00000000 </v>
   <v>       0.75000000       0.00000000       0.25000000 </v>
   <v>       0.75000000       0.00000000       0.50000000 </v>
   <v>       0.75000000       0.00000000       0.75000000 </v>
   <v>       0.75000000       0.25000000       0.00000000 </v>
   <v>       0.75000000       0.25000000       0.25000000 </v>
   <v>       0.75000000       0.25000000       0.50000000 </v>
   <v>       0.75000000       0.25000000       0.75000000 </v>
   <v>       0.75000000       0.50000000       0.00000000 </v>
   <v>       0.75000000       0.50000000       0.25000000 </v>
   <v>       0.75000000       0.50000000       0.50000000 </v>
   <v>       0.75000000       0.50000000       0.75000000 </v>
   <v>       0.75000000       0.75000000       0.00000000 </v>
   <v>       0.75000000       0.75000000       0.25000000 </v>
   <v>       0.75000000       0.75000000       0.50000000 </v>
   <v>       0.75000000       0.75000000       0.75000000 </v>
  </varray>
 </structure>
</modeling>
