       N       E                     dE             d eps       ncg     rms          rms(c)
DAV:   1     0.116643912680E+03    0.11664E+03   -0.95493E+03 17104   0.125E+03
DAV:   2    -0.441565093771E+01   -0.12106E+03   -0.11303E+03 17632   0.347E+02
DAV:   3    -0.673396642533E+01   -0.23183E+01   -0.23108E+01 20184   0.550E+01
DAV:   4    -0.674993695092E+01   -0.15971E-01   -0.15969E-01 19080   0.431E+00
DAV:   5    -0.675019463967E+01   -0.25769E-03   -0.25770E-03 20760   0.531E-01    0.849E+00
DAV:   6    -0.628923769878E+01    0.46096E+00   -0.38557E+00 18768   0.476E+01    0.658E+00
DAV:   7    -0.578203950881E+01    0.50720E+00   -0.90135E-01 18968   0.219E+01    0.807E-01
DAV:   8    -0.577186922105E+01    0.10170E-01   -0.10200E-02 22184   0.985E-01    0.286E-01
DAV:   9    -0.577068677666E+01    0.11824E-02   -0.59216E-04 24608   0.350E-01    0.568E-02
DAV:  10    -0.577071105758E+01   -0.24281E-04   -0.33794E-05 18960   0.725E-02    0.231E-02
DAV:  11    -0.577071664809E+01   -0.55905E-05   -0.40553E-06 20080   0.385E-02    0.648E-03
DAV:  12    -0.577071399365E+01    0.26544E-05   -0.61787E-07 14272   0.983E-03    0.333E-03
DAV:  13    -0.577071527196E+01   -0.12783E-05   -0.67783E-08  9992   0.392E-03    0.948E-04
DAV:  14    -0.577071548203E+01   -0.21007E-06   -0.88795E-09  8936   0.111E-03
   1 F= -.57707155E+01 E0= -.57707155E+01  d E =0.000000E+00  mag=     0.6388
