       N       E                     dE             d eps       ncg     rms          rms(c)
DAV:   1     0.132915958614E+05    0.13292E+05   -0.56356E+05 12200   0.182E+03
DAV:   2     0.674313311025E+03   -0.12617E+05   -0.12246E+05 10336   0.619E+02
DAV:   3    -0.362205122293E+03   -0.10365E+04   -0.85092E+03 10716   0.185E+02
DAV:   4    -0.417596738854E+03   -0.55392E+02   -0.53979E+02 11072   0.416E+01
DAV:   5    -0.418453429068E+03   -0.85669E+00   -0.85605E+00 10928   0.493E+00    0.679E+01
DAV:   6    -0.399566833352E+03    0.18887E+02   -0.69540E+02 10812   0.722E+01    0.610E+01
DAV:   7    -0.357181559342E+03    0.42385E+02   -0.16033E+02 10776   0.346E+01    0.598E+00
DAV:   8    -0.357439952430E+03   -0.25839E+00   -0.16030E+00 10782   0.245E+00    0.327E+00
DAV:   9    -0.357349460477E+03    0.90492E-01   -0.34802E-01 11014   0.983E-01    0.834E-01
DAV:  10    -0.357355321002E+03   -0.58605E-02   -0.16114E-02 11352   0.229E-01    0.365E-01
DAV:  11    -0.357359096673E+03   -0.37757E-02   -0.89863E-03 10902   0.203E-01    0.137E-01
DAV:  12    -0.357359128116E+03   -0.31443E-04   -0.90918E-04 11188   0.653E-02    0.211E-02
DAV:  13    -0.357359121308E+03    0.68082E-05   -0.52938E-05 11228   0.163E-02    0.181E-02
DAV:  14    -0.357359102369E+03    0.18939E-04   -0.41703E-06  7842   0.432E-03    0.972E-03
DAV:  15    -0.357359093529E+03    0.88399E-05   -0.24938E-06  6730   0.408E-03    0.107E-03
DAV:  16    -0.357359094006E+03   -0.47660E-06   -0.15411E-07  5412   0.851E-04
   1 F= -.35735909E+03 E0= -.35732657E+03  d E =-.975590E-01  mag=    45.9556
 Found     1 degrees of freedom:
       N       E                     dE             d eps       ncg     rms          rms(c)
DAV:   1    -0.357021658365E+03    0.33744E+00   -0.97323E+00 20484   0.285E+01    0.108E+00
DAV:   2    -0.357382370585E+03   -0.36071E+00   -0.33306E+00 15950   0.289E+00    0.382E+00
DAV:   3    -0.357361749423E+03    0.20621E-01   -0.15674E-01 19424   0.160E+00    0.153E+00
DAV:   4    -0.357372717570E+03   -0.10968E-01   -0.27048E-02 18976   0.124E+00    0.265E+00
DAV:   5    -0.357358230687E+03    0.14487E-01   -0.10443E-02 16784   0.924E-01    0.543E-01
DAV:   6    -0.357357932286E+03    0.29840E-03   -0.16439E-03 19808   0.224E-01    0.309E-01
DAV:   7    -0.357357846074E+03    0.86211E-04   -0.38867E-04 17120   0.126E-01    0.313E-01
DAV:   8    -0.357357663912E+03    0.18216E-03   -0.21879E-04 17040   0.119E-01    0.253E-01
DAV:   9    -0.357357757257E+03   -0.93345E-04   -0.32142E-04 17256   0.157E-01    0.375E-01
DAV:  10    -0.357357397495E+03    0.35976E-03   -0.47865E-04 19056   0.186E-01    0.232E-01
DAV:  11    -0.357357308557E+03    0.88938E-04   -0.21223E-04 20888   0.912E-02    0.804E-02
DAV:  12    -0.357357332351E+03   -0.23793E-04   -0.70484E-05 21240   0.637E-02    0.119E-01
DAV:  13    -0.357357301787E+03    0.30564E-04   -0.44974E-05 17872   0.556E-02    0.312E-02
DAV:  14    -0.357357310539E+03   -0.87521E-05   -0.14953E-05 19776   0.285E-02    0.662E-02
DAV:  15    -0.357357302294E+03    0.82450E-05   -0.86687E-06 16520   0.259E-02    0.166E-02
DAV:  16    -0.357357302260E+03    0.34750E-07   -0.16565E-06  8656   0.958E-03
   2 F= -.35735730E+03 E0= -.35732478E+03  d E =-.975592E-01  mag=    45.9556
       N       E                     dE             d eps       ncg     rms          rms(c)
DAV:   1    -0.357219301512E+03    0.13800E+00   -0.48081E+00 20684   0.177E+01    0.397E-01
DAV:   2    -0.357360554818E+03   -0.14125E+00   -0.13601E+00 15740   0.181E+00    0.166E+00
DAV:   3    -0.357358797689E+03    0.17571E-02   -0.46938E-02 19372   0.702E-01    0.457E-01
DAV:   4    -0.357360704888E+03   -0.19072E-02   -0.49122E-03 19210   0.473E-01    0.983E-01
DAV:   5    -0.357358758344E+03    0.19465E-02   -0.17541E-03 16754   0.368E-01    0.198E-01
DAV:   6    -0.357358713516E+03    0.44828E-04   -0.24773E-04 19400   0.903E-02    0.985E-02
DAV:   7    -0.357358710389E+03    0.31269E-05   -0.68755E-05 17656   0.574E-02    0.115E-01
DAV:   8    -0.357358680731E+03    0.29658E-04   -0.47918E-05 17244   0.579E-02    0.814E-02
DAV:   9    -0.357358721103E+03   -0.40372E-04   -0.71572E-05 17384   0.758E-02    0.165E-01
DAV:  10    -0.357358662070E+03    0.59033E-04   -0.75306E-05 19120   0.765E-02    0.796E-02
DAV:  11    -0.357358651654E+03    0.10416E-04   -0.26780E-05 20090   0.335E-02    0.268E-02
DAV:  12    -0.357358654090E+03   -0.24356E-05   -0.80173E-06 17016   0.207E-02    0.360E-02
DAV:  13    -0.357358651526E+03    0.25638E-05   -0.41810E-06 13954   0.168E-02    0.941E-03
DAV:  14    -0.357358651894E+03   -0.36779E-06   -0.79123E-07  8022   0.697E-03
   3 F= -.35735865E+03 E0= -.35732613E+03  d E =-.975575E-01  mag=    45.9556
       N       E                     dE             d eps       ncg     rms          rms(c)
DAV:   1    -0.357065793146E+03    0.29286E+00   -0.86997E+00 20654   0.261E+01    0.976E-01
DAV:   2    -0.357377052062E+03   -0.31126E+00   -0.28913E+00 15904   0.268E+00    0.344E+00
DAV:   3    -0.357362278808E+03    0.14773E-01   -0.13659E-01 18732   0.145E+00    0.139E+00
DAV:   4    -0.357371013983E+03   -0.87352E-02   -0.22170E-02 19124   0.111E+00    0.238E+00
DAV:   5    -0.357359355470E+03    0.11659E-01   -0.85003E-03 16788   0.832E-01    0.474E-01
DAV:   6    -0.357359139274E+03    0.21620E-03   -0.13384E-03 19964   0.198E-01    0.271E-01
DAV:   7    -0.357359069549E+03    0.69726E-04   -0.31914E-04 17298   0.116E-01    0.278E-01
DAV:   8    -0.357358922219E+03    0.14733E-03   -0.19703E-04 17132   0.114E-01    0.224E-01
DAV:   9    -0.357359053203E+03   -0.13098E-03   -0.32799E-04 17168   0.159E-01    0.370E-01
DAV:  10    -0.357358734803E+03    0.31840E-03   -0.44630E-04 19562   0.178E-01    0.219E-01
DAV:  11    -0.357358653704E+03    0.81099E-04   -0.17703E-04 20352   0.864E-02    0.695E-02
DAV:  12    -0.357358676550E+03   -0.22846E-04   -0.59985E-05 21104   0.583E-02    0.109E-01
DAV:  13    -0.357358651472E+03    0.25078E-04   -0.36115E-05 17280   0.503E-02    0.285E-02
DAV:  14    -0.357358657648E+03   -0.61764E-05   -0.11263E-05 19184   0.248E-02    0.572E-02
DAV:  15    -0.357358651585E+03    0.60632E-05   -0.65222E-06 14720   0.222E-02    0.147E-02
DAV:  16    -0.357358651537E+03    0.47992E-07   -0.12553E-06  8168   0.859E-03
   4 F= -.35735865E+03 E0= -.35732613E+03  d E =-.975572E-01  mag=    45.9557
       N       E                     dE             d eps       ncg     rms          rms(c)
DAV:   1    -0.357209573780E+03    0.14908E+00   -0.47138E+00 20564   0.179E+01    0.570E-01
DAV:   2    -0.357360741516E+03   -0.15117E+00   -0.14561E+00 15838   0.188E+00    0.186E+00
DAV:   3    -0.357358935596E+03    0.18059E-02   -0.58060E-02 19048   0.876E-01    0.899E-01
DAV:   4    -0.357361287603E+03   -0.23520E-02   -0.74459E-03 18788   0.638E-01    0.134E+00
DAV:   5    -0.357357547707E+03    0.37399E-02   -0.27184E-03 16804   0.485E-01    0.252E-01
DAV:   6    -0.357357501958E+03    0.45749E-04   -0.39973E-04 19808   0.105E-01    0.167E-01
DAV:   7    -0.357357464877E+03    0.37081E-04   -0.90451E-05 17140   0.623E-02    0.163E-01
DAV:   8    -0.357357419211E+03    0.45666E-04   -0.56206E-05 17080   0.606E-02    0.137E-01
DAV:   9    -0.357357443716E+03   -0.24505E-04   -0.95889E-05 17344   0.875E-02    0.209E-01
DAV:  10    -0.357357308036E+03    0.13568E-03   -0.13031E-04 19560   0.969E-02    0.649E-02
DAV:  11    -0.357357306785E+03    0.12513E-05   -0.44885E-05 20432   0.359E-02    0.505E-02
DAV:  12    -0.357357310375E+03   -0.35898E-05   -0.17806E-05 18904   0.316E-02    0.652E-02
DAV:  13    -0.357357302139E+03    0.82355E-05   -0.11552E-05 17008   0.274E-02    0.166E-02
DAV:  14    -0.357357303519E+03   -0.13802E-05   -0.26657E-06 11320   0.125E-02    0.266E-02
DAV:  15    -0.357357302173E+03    0.13463E-05   -0.19954E-06  8328   0.115E-02    0.699E-03
DAV:  16    -0.357357302317E+03   -0.14371E-06   -0.52394E-07  8040   0.492E-03
   5 F= -.35735730E+03 E0= -.35732478E+03  d E =-.975595E-01  mag=    45.9556
