 vasp.5.4.1 05Feb16 (build Oct 12 2016 17:31:35) complex                        
  
 executed on           IFC91_ompi date 2020.09.07  16:21:09
 running on    1 total cores
 distrk:  each k-point on    1 cores,    1 groups
 distr:  one band on NCORES_PER_BAND=   1 cores,    1 groups


--------------------------------------------------------------------------------------------------------


 INCAR:
 POTCAR:   PAW_PBE Ni_pv 06Sep2000                
 POTCAR:   PAW_PBE Ni_pv 06Sep2000                
  local pseudopotential read in
  partial core-charges read in
  atomic valenz-charges read in
  non local Contribution for L=           1  read in
    real space projection operators read in
  non local Contribution for L=           1  read in
    real space projection operators read in
  non local Contribution for L=           2  read in
    real space projection operators read in
  non local Contribution for L=           2  read in
    real space projection operators read in
  non local Contribution for L=           0  read in
    real space projection operators read in
  non local Contribution for L=           0  read in
    real space projection operators read in
    PAW grid and wavefunctions read in
 
   number of l-projection  operators is LMAX  =           6
   number of lm-projection operators is LMMAX =          18
 
 Optimization of the real space projectors (new method)

 maximal supplied QI-value         = 18.90
 optimisation between [QCUT,QGAM] = [  9.83, 19.65] = [ 27.04,108.16] Ry 
 Optimized for a Real-space Cutoff    1.44 Angstroem

   l    n(q)    QCUT    max X(q) W(low)/X(q) W(high)/X(q)  e(spline) 
   1      8     9.827     3.231    0.38E-04    0.39E-04    0.57E-07
   1      8     9.827     4.241    0.57E-04    0.19E-03    0.30E-06
   2      7     9.827     3.566    0.29E-04    0.66E-04    0.48E-07
   2      7     9.827    20.429    0.17E-03    0.37E-03    0.30E-06
   0      8     9.827    19.799    0.18E-04    0.76E-05    0.78E-08
   0      8     9.827    52.283    0.39E-04    0.68E-04    0.44E-07
 PAW_PBE Ni_pv 06Sep2000                :
 energy of atom  1       EATOM=-3500.3496
 kinetic energy error for atom=    0.1419 (will be added to EATOM!!)
 
 
 POSCAR: Supercell by Yi Wang                    
  positions in direct lattice
  No initial velocities read in
 exchange correlation table for  LEXCH =        8
   RHO(1)=    0.500       N(1)  =     2000
   RHO(2)=  100.500       N(2)  =     4000
 


--------------------------------------------------------------------------------------------------------


 ion  position               nearest neighbor table
   1  0.000  0.000  0.000-
   2  0.000  0.000  0.250-
   3  0.000  0.000  0.500-
   4  0.000  0.000  0.750-
   5  0.000  0.250  0.000-
   6  0.000  0.250  0.250-
   7  0.000  0.250  0.500-
   8  0.000  0.250  0.750-
   9  0.000  0.500  0.000-
  10  0.000  0.500  0.250-
  11  0.000  0.500  0.500-
  12  0.000  0.500  0.750-
  13  0.000  0.750  0.000-
  14  0.000  0.750  0.250-
  15  0.000  0.750  0.500-
  16  0.000  0.750  0.750-
  17  0.250  0.000  0.000-
  18  0.250  0.000  0.250-
  19  0.250  0.000  0.500-
  20  0.250  0.000  0.750-
  21  0.250  0.250  0.000-
  22  0.250  0.250  0.250-
  23  0.250  0.250  0.500-
  24  0.250  0.250  0.750-
  25  0.250  0.500  0.000-
  26  0.250  0.500  0.250-
  27  0.250  0.500  0.500-
  28  0.250  0.500  0.750-
  29  0.250  0.750  0.000-
  30  0.250  0.750  0.250-
  31  0.250  0.750  0.500-
  32  0.250  0.750  0.750-
  33  0.500  0.000  0.000-
  34  0.500  0.000  0.250-
  35  0.500  0.000  0.500-
  36  0.500  0.000  0.750-
  37  0.500  0.250  0.000-
  38  0.500  0.250  0.250-
  39  0.500  0.250  0.500-
  40  0.500  0.250  0.750-
  41  0.500  0.500  0.000-
  42  0.500  0.500  0.250-
  43  0.500  0.500  0.500-
  44  0.500  0.500  0.750-
  45  0.500  0.750  0.000-
  46  0.500  0.750  0.250-
  47  0.500  0.750  0.500-
  48  0.500  0.750  0.750-
  49  0.750  0.000  0.000-
  50  0.750  0.000  0.250-
  51  0.750  0.000  0.500-
  52  0.750  0.000  0.750-
  53  0.750  0.250  0.000-
  54  0.750  0.250  0.250-
  55  0.750  0.250  0.500-
  56  0.750  0.250  0.750-
  57  0.750  0.500  0.000-
  58  0.750  0.500  0.250-
  59  0.750  0.500  0.500-
  60  0.750  0.500  0.750-
  61  0.750  0.750  0.000-
  62  0.750  0.750  0.250-
  63  0.750  0.750  0.500-
  64  0.750  0.750  0.750-
 
  LATTYP: Found a face centered cubic cell.
 ALAT       =    14.9460000000
  
  Lattice vectors:
  
 A1 = (   0.0000000000,   7.4730000000,   7.4730000000)
 A2 = (   7.4730000000,   0.0000000000,   7.4730000000)
 A3 = (   7.4730000000,   7.4730000000,   0.0000000000)


Analysis of symmetry for initial positions (statically):
=====================================================================
 Subroutine PRICEL returns following result:
 
  LATTYP: Found a face centered cubic cell.
 ALAT       =     3.7365000000
  
  Lattice vectors:
  
 A1 = (   0.0000000000,   1.8682500000,   1.8682500000)
 A2 = (   1.8682500000,   0.0000000000,   1.8682500000)
 A3 = (   1.8682500000,   1.8682500000,   0.0000000000)
 
  64 primitive cells build up your supercell.
 

 Routine SETGRP: Setting up the symmetry group for a 
 face centered cubic supercell.


 Subroutine GETGRP returns: Found 48 space group operations
 (whereof 48 operations were pure point group operations)
 out of a pool of 48 trial point group operations.


The static configuration has the point symmetry O_h .


Analysis of symmetry for dynamics (positions and initial velocities):
=====================================================================
 Subroutine PRICEL returns following result:
 
  LATTYP: Found a face centered cubic cell.
 ALAT       =     3.7365000000
  
  Lattice vectors:
  
 A1 = (   0.0000000000,   1.8682500000,   1.8682500000)
 A2 = (   1.8682500000,   0.0000000000,   1.8682500000)
 A3 = (   1.8682500000,   1.8682500000,   0.0000000000)
 
  64 primitive cells build up your supercell.
 

 Routine SETGRP: Setting up the symmetry group for a 
 face centered cubic supercell.


 Subroutine GETGRP returns: Found 48 space group operations
 (whereof 48 operations were pure point group operations)
 out of a pool of 48 trial point group operations.


The dynamic configuration has the point symmetry O_h .


Analysis of structural, dynamic, and magnetic symmetry:
=====================================================================
 Subroutine PRICEL returns following result:
 
  LATTYP: Found a face centered cubic cell.
 ALAT       =     3.7365000000
  
  Lattice vectors:
  
 A1 = (   0.0000000000,   1.8682500000,   1.8682500000)
 A2 = (   1.8682500000,   0.0000000000,   1.8682500000)
 A3 = (   1.8682500000,   1.8682500000,   0.0000000000)
 
  64 primitive cells build up your supercell.
 

 Routine SETGRP: Setting up the symmetry group for a 
 face centered cubic supercell.


 Subroutine GETGRP returns: Found 48 space group operations
 (whereof 48 operations were pure point group operations)
 out of a pool of 48 trial point group operations.


The magnetic configuration has the point symmetry O_h .


 Subroutine INISYM returns: Found 48 space group operations
 (whereof 48 operations are pure point group operations),
 and found    64 'primitive' translations

 
 
 KPOINTS: Zr 15x15x15                             

Automatic generation of k-mesh.
Space group operators:
 irot       det(A)        alpha          n_x          n_y          n_z        tau_x        tau_y        tau_z
    1     1.000000     0.000000     1.000000     0.000000     0.000000     0.000000     0.000000     0.000000
    2    -1.000000     0.000000     1.000000     0.000000     0.000000     0.000000     0.000000     0.000000
    3     1.000000   120.000000    -0.577350    -0.577350    -0.577350     0.000000     0.000000     0.000000
    4    -1.000000   120.000000    -0.577350    -0.577350    -0.577350     0.000000     0.000000     0.000000
    5     1.000000   120.000000     0.577350     0.577350     0.577350     0.000000     0.000000     0.000000
    6    -1.000000   120.000000     0.577350     0.577350     0.577350     0.000000     0.000000     0.000000
    7     1.000000    90.000000     0.000000     0.000000    -1.000000     0.000000     0.000000     0.000000
    8    -1.000000    90.000000     0.000000     0.000000    -1.000000     0.000000     0.000000     0.000000
    9     1.000000   180.000000     0.000000     0.707107     0.707107     0.000000     0.000000     0.000000
   10    -1.000000   180.000000     0.000000     0.707107     0.707107     0.000000     0.000000     0.000000
   11     1.000000    90.000000     0.000000     1.000000     0.000000     0.000000     0.000000     0.000000
   12    -1.000000    90.000000     0.000000     1.000000     0.000000     0.000000     0.000000     0.000000
   13     1.000000   180.000000     0.000000     0.000000     1.000000     0.000000     0.000000     0.000000
   14    -1.000000   180.000000     0.000000     0.000000     1.000000     0.000000     0.000000     0.000000
   15     1.000000   120.000000    -0.577350     0.577350     0.577350     0.000000     0.000000     0.000000
   16    -1.000000   120.000000    -0.577350     0.577350     0.577350     0.000000     0.000000     0.000000
   17     1.000000   120.000000    -0.577350     0.577350    -0.577350     0.000000     0.000000     0.000000
   18    -1.000000   120.000000    -0.577350     0.577350    -0.577350     0.000000     0.000000     0.000000
   19     1.000000    90.000000     0.000000     0.000000     1.000000     0.000000     0.000000     0.000000
   20    -1.000000    90.000000     0.000000     0.000000     1.000000     0.000000     0.000000     0.000000
   21     1.000000    90.000000    -1.000000     0.000000     0.000000     0.000000     0.000000     0.000000
   22    -1.000000    90.000000    -1.000000     0.000000     0.000000     0.000000     0.000000     0.000000
   23     1.000000   180.000000     0.707107     0.000000     0.707107     0.000000     0.000000     0.000000
   24    -1.000000   180.000000     0.707107     0.000000     0.707107     0.000000     0.000000     0.000000
   25     1.000000   120.000000     0.577350    -0.577350     0.577350     0.000000     0.000000     0.000000
   26    -1.000000   120.000000     0.577350    -0.577350     0.577350     0.000000     0.000000     0.000000
   27     1.000000   120.000000    -0.577350    -0.577350     0.577350     0.000000     0.000000     0.000000
   28    -1.000000   120.000000    -0.577350    -0.577350     0.577350     0.000000     0.000000     0.000000
   29     1.000000   180.000000     1.000000     0.000000     0.000000     0.000000     0.000000     0.000000
   30    -1.000000   180.000000     1.000000     0.000000     0.000000     0.000000     0.000000     0.000000
   31     1.000000    90.000000     0.000000    -1.000000     0.000000     0.000000     0.000000     0.000000
   32    -1.000000    90.000000     0.000000    -1.000000     0.000000     0.000000     0.000000     0.000000
   33     1.000000   180.000000     0.707107     0.707107     0.000000     0.000000     0.000000     0.000000
   34    -1.000000   180.000000     0.707107     0.707107     0.000000     0.000000     0.000000     0.000000
   35     1.000000    90.000000     1.000000     0.000000     0.000000     0.000000     0.000000     0.000000
   36    -1.000000    90.000000     1.000000     0.000000     0.000000     0.000000     0.000000     0.000000
   37     1.000000   120.000000     0.577350    -0.577350    -0.577350     0.000000     0.000000     0.000000
   38    -1.000000   120.000000     0.577350    -0.577350    -0.577350     0.000000     0.000000     0.000000
   39     1.000000   180.000000     0.000000     1.000000     0.000000     0.000000     0.000000     0.000000
   40    -1.000000   180.000000     0.000000     1.000000     0.000000     0.000000     0.000000     0.000000
   41     1.000000   120.000000     0.577350     0.577350    -0.577350     0.000000     0.000000     0.000000
   42    -1.000000   120.000000     0.577350     0.577350    -0.577350     0.000000     0.000000     0.000000
   43     1.000000   180.000000     0.000000    -0.707107     0.707107     0.000000     0.000000     0.000000
   44    -1.000000   180.000000     0.000000    -0.707107     0.707107     0.000000     0.000000     0.000000
   45     1.000000   180.000000     0.707107    -0.707107     0.000000     0.000000     0.000000     0.000000
   46    -1.000000   180.000000     0.707107    -0.707107     0.000000     0.000000     0.000000     0.000000
   47     1.000000   180.000000     0.707107     0.000000    -0.707107     0.000000     0.000000     0.000000
   48    -1.000000   180.000000     0.707107     0.000000    -0.707107     0.000000     0.000000     0.000000
 
 Subroutine IBZKPT returns following result:
 ===========================================
 
 Found      4 irreducible k-points:
 
 Following reciprocal coordinates:
            Coordinates               Weight
  0.000000  0.000000  0.000000      1.000000
  0.333333  0.000000  0.000000      8.000000
  0.333333  0.333333  0.000000      6.000000
 -0.333333  0.333333  0.000000     12.000000
 
 Following cartesian coordinates:
            Coordinates               Weight
  0.000000  0.000000  0.000000      1.000000
 -0.022303  0.022303  0.022303      8.000000
  0.000000  0.000000  0.044605      6.000000
  0.044605 -0.044605  0.000000     12.000000
 
 
 Subroutine IBZKPT_HF returns following result:
 ==============================================
 
 Found     27 k-points in 1st BZ
 the following     27 k-points will be used (e.g. in the exchange kernel)
 Following reciprocal coordinates:   # in IRBZ
  0.000000  0.000000  0.000000    0.03703704   1 t-inv F
  0.333333  0.000000  0.000000    0.03703704   2 t-inv F
  0.333333  0.333333  0.000000    0.03703704   3 t-inv F
 -0.333333  0.333333  0.000000    0.03703704   4 t-inv F
 -0.333333  0.000000  0.000000    0.03703704   2 t-inv F
  0.000000  0.333333  0.000000    0.03703704   2 t-inv F
  0.000000 -0.333333  0.000000    0.03703704   2 t-inv F
  0.000000  0.000000  0.333333    0.03703704   2 t-inv F
  0.000000  0.000000 -0.333333    0.03703704   2 t-inv F
  0.333333  0.333333  0.333333    0.03703704   2 t-inv F
 -0.333333 -0.333333 -0.333333    0.03703704   2 t-inv F
 -0.333333 -0.333333  0.000000    0.03703704   3 t-inv F
  0.000000  0.333333  0.333333    0.03703704   3 t-inv F
  0.000000 -0.333333 -0.333333    0.03703704   3 t-inv F
  0.333333  0.000000  0.333333    0.03703704   3 t-inv F
 -0.333333  0.000000 -0.333333    0.03703704   3 t-inv F
  0.333333 -0.333333  0.000000    0.03703704   4 t-inv F
  0.000000 -0.333333  0.333333    0.03703704   4 t-inv F
  0.000000  0.333333 -0.333333    0.03703704   4 t-inv F
  0.333333  0.000000 -0.333333    0.03703704   4 t-inv F
 -0.333333  0.000000  0.333333    0.03703704   4 t-inv F
  0.333333  0.333333  0.666667    0.03703704   4 t-inv F
 -0.333333 -0.333333 -0.666667    0.03703704   4 t-inv F
 -0.333333 -0.666667 -0.333333    0.03703704   4 t-inv F
  0.333333  0.666667  0.333333    0.03703704   4 t-inv F
 -0.666667 -0.333333 -0.333333    0.03703704   4 t-inv F
  0.666667  0.333333  0.333333    0.03703704   4 t-inv F


--------------------------------------------------------------------------------------------------------




 Dimension of arrays:
   k-points           NKPTS =      4   k-points in BZ     NKDIM =      4   number of bands    NBANDS=    646
   number of dos      NEDOS =    301   number of ions     NIONS =     64
   non local maximal  LDIM  =      6   non local SUM 2l+1 LMDIM =     18
   total plane-waves  NPLWV = 343000
   max r-space proj   IRMAX =   5183   max aug-charges    IRDMAX=   9272
   dimension x,y,z NGX =    70 NGY =   70 NGZ =   70
   dimension x,y,z NGXF=   140 NGYF=  140 NGZF=  140
   support grid    NGXF=   140 NGYF=  140 NGZF=  140
   ions per type =              64
 NGX,Y,Z   is equivalent  to a cutoff of  11.01, 11.01, 11.01 a.u.
 NGXF,Y,Z  is equivalent  to a cutoff of  22.02, 22.02, 22.02 a.u.


 I would recommend the setting:
   dimension x,y,z NGX =    66 NGY =   66 NGZ =   66
 SYSTEM =  phonon of Zr bcc - omiga                
 POSCAR =  Supercell by Yi Wang                    

 Startparameter for this run:
   NWRITE =      0    write-flag & timer
   PREC   = a         normal or accurate (medium, high low for compatibility)
   ISTART =      0    job   : 0-new  1-cont  2-samecut
   ICHARG =      2    charge: 1-file 2-atom 10-const
   ISPIN  =      2    spin polarized calculation?
   LNONCOLLINEAR =      F non collinear calculations
   LSORBIT =      F    spin-orbit coupling
   INIWAV =      1    electr: 0-lowe 1-rand  2-diag
   LASPH  =      F    aspherical Exc in radial PAW
   METAGGA=      F    non-selfconsistent MetaGGA calc.

 Electronic Relaxation 1
   ENCUT  =  367.9 eV  27.04 Ry    5.20 a.u.  16.53 16.53 16.53*2*pi/ulx,y,z
   ENINI  =  367.9     initial cutoff
   ENAUG  =  703.4 eV  augmentation charge cutoff
   NELM   =     60;   NELMIN=  2; NELMDL= -5     # of ELM steps 
   EDIFF  = 0.1E-05   stopping-criterion for ELM
   LREAL  =      T    real-space projection
   NLSPLINE    = F    spline interpolate recip. space projectors
   LCOMPAT=      F    compatible to vasp.4.4
   GGA_COMPAT  = T    GGA compatible to vasp.4.4-vasp.4.6
   LMAXPAW     = -100 max onsite density
   LMAXMIX     =    2 max onsite mixed and CHGCAR
   VOSKOWN=      0    Vosko Wilk Nusair interpolation
   ROPT   =   -0.00025
 Ionic relaxation
   EDIFFG = 0.1E-04   stopping-criterion for IOM
   NSW    =    805    number of steps for IOM
   NBLOCK =      1;   KBLOCK =      1    inner block; outer block 
   IBRION =      6    ionic relax: 0-MD 1-quasi-New 2-CG
   NFREE  =      4    steps in history (QN), initial steepest desc. (CG)
   ISIF   =      2    stress and relaxation
   IWAVPR =     11    prediction:  0-non 1-charg 2-wave 3-comb
   ISYM   =      2    0-nonsym 1-usesym 2-fastsym
   LCORR  =      T    Harris-Foulkes like correction to forces

   POTIM  = 0.5000    time-step for ionic-motion
   TEIN   =    0.0    initial temperature
   TEBEG  =    0.0;   TEEND  =   0.0 temperature during run
   SMASS  =  -3.00    Nose mass-parameter (am)
   estimated Nose-frequenzy (Omega)   =  0.10E-29 period in steps =****** mass=  -0.255E-26a.u.
   SCALEE = 1.0000    scale energy and forces
   NPACO  =    256;   APACO  = 16.0  distance and # of slots for P.C.
   PSTRESS=    0.0 pullay stress

  Mass of Ions in am
   POMASS =  58.69
  Ionic Valenz
   ZVAL   =  16.00
  Atomic Wigner-Seitz radii
   RWIGS  =  -1.00
  virtual crystal weights 
   VCA    =   1.00
   NELECT =    1024.0000    total number of electrons
   NUPDOWN=      -1.0000    fix difference up-down

 DOS related values:
   EMIN   =  10.00;   EMAX   =-10.00  energy-range for DOS
   EFERMI =   0.00
   ISMEAR =     1;   SIGMA  =   0.20  broadening in eV -4-tet -1-fermi 0-gaus

 Electronic relaxation 2 (details)
   IALGO  =     38    algorithm
   LDIAG  =      T    sub-space diagonalisation (order eigenvalues)
   LSUBROT=      F    optimize rotation matrix (better conditioning)
   TURBO    =      0    0=normal 1=particle mesh
   IRESTART =      0    0=no restart 2=restart with 2 vectors
   NREBOOT  =      0    no. of reboots
   NMIN     =      0    reboot dimension
   EREF     =   0.00    reference energy to select bands
   IMIX   =      4    mixing-type and parameters
     AMIX     =   0.40;   BMIX     =  1.00
     AMIX_MAG =   1.60;   BMIX_MAG =  1.00
     AMIN     =   0.10
     WC   =   100.;   INIMIX=   1;  MIXPRE=   1;  MAXMIX= -45

 Intra band minimization:
   WEIMIN = 0.0010     energy-eigenvalue tresh-hold
   EBREAK =  0.39E-09  absolut break condition
   DEPER  =   0.30     relativ break condition  

   TIME   =   0.40     timestep for ELM

  volume/ion in A,a.u.               =      13.04        88.01
  Fermi-wavevector in a.u.,A,eV,Ry     =   1.752548  3.311835 41.789251  3.071423
  Thomas-Fermi vector in A             =   2.822857
 
 Write flags
   LWAVE  =      T    write WAVECAR
   LCHARG =      T    write CHGCAR
   LVTOT  =      F    write LOCPOT, total local potential
   LVHAR  =      F    write LOCPOT, Hartree potential only
   LELF   =      F    write electronic localiz. function (ELF)
   LORBIT =      0    0 simple, 1 ext, 2 COOP (PROOUT)


 Dipole corrections
   LMONO  =      F    monopole corrections only (constant potential shift)
   LDIPOL =      F    correct potential (dipole corrections)
   IDIPOL =      0    1-x, 2-y, 3-z, 4-all directions 
   EPSILON=  1.0000000 bulk dielectric constant

 Exchange correlation treatment:
   GGA     =    --    GGA type
   LEXCH   =     8    internal setting for exchange type
   VOSKOWN=      0    Vosko Wilk Nusair interpolation
   LHFCALC =     F    Hartree Fock is set to
   LHFONE  =     F    Hartree Fock one center treatment
   AEXX    =    0.0000 exact exchange contribution

 Linear response parameters
   LEPSILON=     F    determine dielectric tensor
   LRPA    =     F    only Hartree local field effects (RPA)
   LNABLA  =     F    use nabla operator in PAW spheres
   LVEL    =     F    velocity operator in full k-point grid
   LINTERFAST=   F  fast interpolation
   KINTER  =     0    interpolate to denser k-point grid
   CSHIFT  =0.1000    complex shift for real part using Kramers Kronig
   OMEGAMAX=  -1.0    maximum frequency
   DEG_THRESHOLD= 0.2000000E-02 threshold for treating states as degnerate
   RTIME   =    0.100 relaxation time in fs

 Orbital magnetization related:
   ORBITALMAG=     F  switch on orbital magnetization
   LCHIMAG   =     F  perturbation theory with respect to B field
   DQ        =  0.001000  dq finite difference perturbation B field



--------------------------------------------------------------------------------------------------------


 finite differences with symmetry
 charge density and potential will be updated during run
 spin polarized calculation
 Variant of blocked Davidson
 Davidson routine will perform the subspace rotation
 perform sub-space diagonalisation
    after iterative eigenvector-optimisation
 modified Broyden-mixing scheme, WC =      100.0
 initial mixing is a Kerker type mixing with AMIX =  0.4000 and BMIX =      1.0000
 Hartree-type preconditioning will be used
 using additional bands          134
 real space projection scheme for non local part
 use partial core corrections
 calculate Harris-corrections to forces 
   (improved forces if not selfconsistent)
 use gradient corrections 
 use of overlap-Matrix (Vanderbilt PP)
 Methfessel and Paxton  Order N= 1 SIGMA  =   0.20


--------------------------------------------------------------------------------------------------------


  energy-cutoff  :      367.94
  volume of cell :      834.67
      direct lattice vectors                 reciprocal lattice vectors
     0.000000000  7.473000000  7.473000000    -0.066907534  0.066907534  0.066907534
     7.473000000  0.000000000  7.473000000     0.066907534 -0.066907534  0.066907534
     7.473000000  7.473000000  0.000000000     0.066907534  0.066907534 -0.066907534

  length of vectors
    10.568417952 10.568417952 10.568417952     0.115887248  0.115887248  0.115887248


 
 k-points in units of 2pi/SCALE and weight: Zr 15x15x15                             
   0.00000000  0.00000000  0.00000000       0.037
  -0.02230251  0.02230251  0.02230251       0.296
   0.00000000  0.00000000  0.04460502       0.222
   0.04460502 -0.04460502  0.00000000       0.444
 
 k-points in reciprocal lattice and weights: Zr 15x15x15                             
   0.00000000  0.00000000  0.00000000       0.037
   0.33333333  0.00000000  0.00000000       0.296
   0.33333333  0.33333333  0.00000000       0.222
  -0.33333333  0.33333333  0.00000000       0.444
 
 position of ions in fractional coordinates (direct lattice) 
   0.00000000  0.00000000  0.00000000
   0.00000000  0.00000000  0.25000000
   0.00000000  0.00000000  0.50000000
   0.00000000  0.00000000  0.75000000
   0.00000000  0.25000000  0.00000000
   0.00000000  0.25000000  0.25000000
   0.00000000  0.25000000  0.50000000
   0.00000000  0.25000000  0.75000000
   0.00000000  0.50000000  0.00000000
   0.00000000  0.50000000  0.25000000
   0.00000000  0.50000000  0.50000000
   0.00000000  0.50000000  0.75000000
   0.00000000  0.75000000  0.00000000
   0.00000000  0.75000000  0.25000000
   0.00000000  0.75000000  0.50000000
   0.00000000  0.75000000  0.75000000
   0.25000000  0.00000000  0.00000000
   0.25000000  0.00000000  0.25000000
   0.25000000  0.00000000  0.50000000
   0.25000000  0.00000000  0.75000000
   0.25000000  0.25000000  0.00000000
   0.25000000  0.25000000  0.25000000
   0.25000000  0.25000000  0.50000000
   0.25000000  0.25000000  0.75000000
   0.25000000  0.50000000  0.00000000
   0.25000000  0.50000000  0.25000000
   0.25000000  0.50000000  0.50000000
   0.25000000  0.50000000  0.75000000
   0.25000000  0.75000000  0.00000000
   0.25000000  0.75000000  0.25000000
   0.25000000  0.75000000  0.50000000
   0.25000000  0.75000000  0.75000000
   0.50000000  0.00000000  0.00000000
   0.50000000  0.00000000  0.25000000
   0.50000000  0.00000000  0.50000000
   0.50000000  0.00000000  0.75000000
   0.50000000  0.25000000  0.00000000
   0.50000000  0.25000000  0.25000000
   0.50000000  0.25000000  0.50000000
   0.50000000  0.25000000  0.75000000
   0.50000000  0.50000000  0.00000000
   0.50000000  0.50000000  0.25000000
   0.50000000  0.50000000  0.50000000
   0.50000000  0.50000000  0.75000000
   0.50000000  0.75000000  0.00000000
   0.50000000  0.75000000  0.25000000
   0.50000000  0.75000000  0.50000000
   0.50000000  0.75000000  0.75000000
   0.75000000  0.00000000  0.00000000
   0.75000000  0.00000000  0.25000000
   0.75000000  0.00000000  0.50000000
   0.75000000  0.00000000  0.75000000
   0.75000000  0.25000000  0.00000000
   0.75000000  0.25000000  0.25000000
   0.75000000  0.25000000  0.50000000
   0.75000000  0.25000000  0.75000000
   0.75000000  0.50000000  0.00000000
   0.75000000  0.50000000  0.25000000
   0.75000000  0.50000000  0.50000000
   0.75000000  0.50000000  0.75000000
   0.75000000  0.75000000  0.00000000
   0.75000000  0.75000000  0.25000000
   0.75000000  0.75000000  0.50000000
   0.75000000  0.75000000  0.75000000
 
 position of ions in cartesian coordinates  (Angst):
   0.00000000  0.00000000  0.00000000
   1.86825000  1.86825000  0.00000000
   3.73650000  3.73650000  0.00000000
   5.60475000  5.60475000  0.00000000
   1.86825000  0.00000000  1.86825000
   3.73650000  1.86825000  1.86825000
   5.60475000  3.73650000  1.86825000
   7.47300000  5.60475000  1.86825000
   3.73650000  0.00000000  3.73650000
   5.60475000  1.86825000  3.73650000
   7.47300000  3.73650000  3.73650000
   9.34125000  5.60475000  3.73650000
   5.60475000  0.00000000  5.60475000
   7.47300000  1.86825000  5.60475000
   9.34125000  3.73650000  5.60475000
  11.20950000  5.60475000  5.60475000
   0.00000000  1.86825000  1.86825000
   1.86825000  3.73650000  1.86825000
   3.73650000  5.60475000  1.86825000
   5.60475000  7.47300000  1.86825000
   1.86825000  1.86825000  3.73650000
   3.73650000  3.73650000  3.73650000
   5.60475000  5.60475000  3.73650000
   7.47300000  7.47300000  3.73650000
   3.73650000  1.86825000  5.60475000
   5.60475000  3.73650000  5.60475000
   7.47300000  5.60475000  5.60475000
   9.34125000  7.47300000  5.60475000
   5.60475000  1.86825000  7.47300000
   7.47300000  3.73650000  7.47300000
   9.34125000  5.60475000  7.47300000
  11.20950000  7.47300000  7.47300000
   0.00000000  3.73650000  3.73650000
   1.86825000  5.60475000  3.73650000
   3.73650000  7.47300000  3.73650000
   5.60475000  9.34125000  3.73650000
   1.86825000  3.73650000  5.60475000
   3.73650000  5.60475000  5.60475000
   5.60475000  7.47300000  5.60475000
   7.47300000  9.34125000  5.60475000
   3.73650000  3.73650000  7.47300000
   5.60475000  5.60475000  7.47300000
   7.47300000  7.47300000  7.47300000
   9.34125000  9.34125000  7.47300000
   5.60475000  3.73650000  9.34125000
   7.47300000  5.60475000  9.34125000
   9.34125000  7.47300000  9.34125000
  11.20950000  9.34125000  9.34125000
   0.00000000  5.60475000  5.60475000
   1.86825000  7.47300000  5.60475000
   3.73650000  9.34125000  5.60475000
   5.60475000 11.20950000  5.60475000
   1.86825000  5.60475000  7.47300000
   3.73650000  7.47300000  7.47300000
   5.60475000  9.34125000  7.47300000
   7.47300000 11.20950000  7.47300000
   3.73650000  5.60475000  9.34125000
   5.60475000  7.47300000  9.34125000
   7.47300000  9.34125000  9.34125000
   9.34125000 11.20950000  9.34125000
   5.60475000  5.60475000 11.20950000
   7.47300000  7.47300000 11.20950000
   9.34125000  9.34125000 11.20950000
  11.20950000 11.20950000 11.20950000
 


--------------------------------------------------------------------------------------------------------


 k-point  1 :   0.0000 0.0000 0.0000  plane waves:   13371
 k-point  2 :   0.3333 0.0000 0.0000  plane waves:   13377
 k-point  3 :   0.3333 0.3333 0.0000  plane waves:   13384
 k-point  4 :  -0.3333 0.3333 0.0000  plane waves:   13374

 maximum and minimum number of plane-waves per node :     13384    13371

 maximum number of plane-waves:     13384
 maximum index in each direction: 
   IXMAX=   16   IYMAX=   16   IZMAX=   16
   IXMIN=  -16   IYMIN=  -16   IZMIN=  -16

 NGX is ok and might be reduce to  66
 NGY is ok and might be reduce to  66
 NGZ is ok and might be reduce to  66

 serial   3D FFT for wavefunctions
 parallel 3D FFT for charge:
    minimum data exchange during FFTs selected (reduces bandwidth)


 total amount of memory used by VASP on root node  1612156. kBytes
========================================================================

   base      :      30000. kBytes
   nonlr-proj:      56154. kBytes
   fftplans  :      94700. kBytes
   grid      :     227360. kBytes
   one-center:       1990. kBytes
   wavefun   :    1201952. kBytes
 
     INWAV:  cpu time    0.0000: real time    0.0000
 Broyden mixing: mesh for mixing (old mesh)
   NGX = 33   NGY = 33   NGZ = 33
  (NGX  =140   NGY  =140   NGZ  =140)
  gives a total of  35937 points

 initial charge density was supplied:
 charge density of overlapping atoms calculated
 number of electron    1024.0000000 magnetization      64.0000000
 keeping initial charge density in first step


--------------------------------------------------------------------------------------------------------


 Maximum index for non-local projection operator         5017
 Maximum index for augmentation-charges         8781 (set IRDMAX)


--------------------------------------------------------------------------------------------------------


 First call to EWALD:  gamma=   0.188
 Maximum number of real-space cells 3x 3x 3
 Maximum number of reciprocal cells 3x 3x 3

 FEWALD executed in parallel
    FEWALD:  cpu time    0.0220: real time    0.0220


----------------------------------------- Iteration    1(   1)  ---------------------------------------


    POTLOK:  cpu time    2.7716: real time    2.8053
    SETDIJ:  cpu time    0.3989: real time    0.3980
     EDDAV:  cpu time  541.6297: real time  541.1787
       DOS:  cpu time    0.0130: real time    0.0126
    --------------------------------------------
      LOOP:  cpu time  544.8142: real time  544.3959

 eigenvalue-minimisations  : 12200
 total energy-change (2. order) : 0.1329160E+05  (-0.5635569E+05)
 number of electron    1024.0000000 magnetization      64.0000000
 augmentation part     1024.0000000 magnetization      64.0000000

 Free energy of the ion-electron system (eV)
  ---------------------------------------------------
  alpha Z        PSCENC =      8266.97428417
  Ewald energy   TEWEN  =   -144746.26977666
  -Hartree energ DENC   =    -67168.00643356
  -exchange      EXHF   =         0.00000000
  -V(xc)+E(xc)   XCENC  =      5681.52194873
  PAW double counting   =    172361.15642774  -181272.45834873
  entropy T*S    EENTRO =         0.01698649
  eigenvalues    EBANDS =     -3844.63065746
  atomic energy  EATOM  =    224013.29143063
  Solvation  Ediel_sol  =         0.00000000
  ---------------------------------------------------
  free energy    TOTEN  =     13291.59586136 eV

  energy without entropy =    13291.57887487  energy(sigma->0) =    13291.59019919


--------------------------------------------------------------------------------------------------------




----------------------------------------- Iteration    1(   2)  ---------------------------------------


     EDDAV:  cpu time  477.2644: real time  476.8659
       DOS:  cpu time    0.0140: real time    0.0138
    --------------------------------------------
      LOOP:  cpu time  477.2784: real time  476.8802

 eigenvalue-minimisations  : 10336
 total energy-change (2. order) :-0.1261728E+05  (-0.1224565E+05)
 number of electron    1024.0000000 magnetization      64.0000000
 augmentation part     1024.0000000 magnetization      64.0000000

 Free energy of the ion-electron system (eV)
  ---------------------------------------------------
  alpha Z        PSCENC =      8266.97428417
  Ewald energy   TEWEN  =   -144746.26977666
  -Hartree energ DENC   =    -67168.00643356
  -exchange      EXHF   =         0.00000000
  -V(xc)+E(xc)   XCENC  =      5681.52194873
  PAW double counting   =    172361.15642774  -181272.45834873
  entropy T*S    EENTRO =         0.00601714
  eigenvalues    EBANDS =    -16461.90223844
  atomic energy  EATOM  =    224013.29143063
  Solvation  Ediel_sol  =         0.00000000
  ---------------------------------------------------
  free energy    TOTEN  =       674.31331102 eV

  energy without entropy =      674.30729388  energy(sigma->0) =      674.31130531


--------------------------------------------------------------------------------------------------------




----------------------------------------- Iteration    1(   3)  ---------------------------------------


     EDDAV:  cpu time  490.4594: real time  490.0507
       DOS:  cpu time    0.0160: real time    0.0153
    --------------------------------------------
      LOOP:  cpu time  490.4764: real time  490.0675

 eigenvalue-minimisations  : 10716
 total energy-change (2. order) :-0.1036518E+04  (-0.8509190E+03)
 number of electron    1024.0000000 magnetization      64.0000000
 augmentation part     1024.0000000 magnetization      64.0000000

 Free energy of the ion-electron system (eV)
  ---------------------------------------------------
  alpha Z        PSCENC =      8266.97428417
  Ewald energy   TEWEN  =   -144746.26977666
  -Hartree energ DENC   =    -67168.00643356
  -exchange      EXHF   =         0.00000000
  -V(xc)+E(xc)   XCENC  =      5681.52194873
  PAW double counting   =    172361.15642774  -181272.45834873
  entropy T*S    EENTRO =         0.17303512
  eigenvalues    EBANDS =    -17498.58768974
  atomic energy  EATOM  =    224013.29143063
  Solvation  Ediel_sol  =         0.00000000
  ---------------------------------------------------
  free energy    TOTEN  =      -362.20512229 eV

  energy without entropy =     -362.37815741  energy(sigma->0) =     -362.26280067


--------------------------------------------------------------------------------------------------------




----------------------------------------- Iteration    1(   4)  ---------------------------------------


     EDDAV:  cpu time  502.1477: real time  501.7291
       DOS:  cpu time    0.0150: real time    0.0152
    --------------------------------------------
      LOOP:  cpu time  502.1627: real time  501.7448

 eigenvalue-minimisations  : 11072
 total energy-change (2. order) :-0.5539162E+02  (-0.5397949E+02)
 number of electron    1024.0000000 magnetization      64.0000000
 augmentation part     1024.0000000 magnetization      64.0000000

 Free energy of the ion-electron system (eV)
  ---------------------------------------------------
  alpha Z        PSCENC =      8266.97428417
  Ewald energy   TEWEN  =   -144746.26977666
  -Hartree energ DENC   =    -67168.00643356
  -exchange      EXHF   =         0.00000000
  -V(xc)+E(xc)   XCENC  =      5681.52194873
  PAW double counting   =    172361.15642774  -181272.45834873
  entropy T*S    EENTRO =         0.16744300
  eigenvalues    EBANDS =    -17553.97371418
  atomic energy  EATOM  =    224013.29143063
  Solvation  Ediel_sol  =         0.00000000
  ---------------------------------------------------
  free energy    TOTEN  =      -417.59673885 eV

  energy without entropy =     -417.76418185  energy(sigma->0) =     -417.65255319


--------------------------------------------------------------------------------------------------------




----------------------------------------- Iteration    1(   5)  ---------------------------------------


     EDDAV:  cpu time  496.9285: real time  496.5144
       DOS:  cpu time    0.0160: real time    0.0155
    CHARGE:  cpu time   26.4440: real time   26.4219
    MIXING:  cpu time    0.0610: real time    0.0607
    --------------------------------------------
      LOOP:  cpu time  523.4504: real time  523.0131

 eigenvalue-minimisations  : 10928
 total energy-change (2. order) :-0.8566902E+00  (-0.8560524E+00)
 number of electron    1023.9999816 magnetization      59.1720918
 augmentation part      572.6108836 magnetization      47.0979445

 Broyden mixing:
  rms(total) = 0.67890E+01    rms(broyden)= 0.67861E+01
  rms(prec ) = 0.91210E+01
  weight for this iteration     100.00

 Free energy of the ion-electron system (eV)
  ---------------------------------------------------
  alpha Z        PSCENC =      8266.97428417
  Ewald energy   TEWEN  =   -144746.26977666
  -Hartree energ DENC   =    -67168.00643356
  -exchange      EXHF   =         0.00000000
  -V(xc)+E(xc)   XCENC  =      5681.52194873
  PAW double counting   =    172361.15642774  -181272.45834873
  entropy T*S    EENTRO =         0.16750233
  eigenvalues    EBANDS =    -17554.83046372
  atomic energy  EATOM  =    224013.29143063
  Solvation  Ediel_sol  =         0.00000000
  ---------------------------------------------------
  free energy    TOTEN  =      -418.45342907 eV

  energy without entropy =     -418.62093140  energy(sigma->0) =     -418.50926318


--------------------------------------------------------------------------------------------------------




----------------------------------------- Iteration    1(   6)  ---------------------------------------


    POTLOK:  cpu time    2.7726: real time    2.7703
    SETDIJ:  cpu time    0.3969: real time    0.3963
     EDDAV:  cpu time  492.5791: real time  492.1689
       DOS:  cpu time    0.0150: real time    0.0155
    CHARGE:  cpu time   25.8321: real time   25.8098
    MIXING:  cpu time    0.0640: real time    0.0636
    --------------------------------------------
      LOOP:  cpu time  521.6597: real time  521.2250

 eigenvalue-minimisations  : 10812
 total energy-change (2. order) : 0.1888660E+02  (-0.6954024E+02)
 number of electron    1023.9999762 magnetization      53.0488688
 augmentation part      636.6831758 magnetization      47.6836762

 Broyden mixing:
  rms(total) = 0.60978E+01    rms(broyden)= 0.60972E+01
  rms(prec ) = 0.76399E+01
  weight for this iteration     100.00

 eigenvalues of (default mixing * dielectric matrix)
  average eigenvalue GAMMA=   0.5036
  0.5036

 Free energy of the ion-electron system (eV)
  ---------------------------------------------------
  alpha Z        PSCENC =      8266.97428417
  Ewald energy   TEWEN  =   -144746.26977666
  -Hartree energ DENC   =    -63765.12778920
  -exchange      EXHF   =         0.00000000
  -V(xc)+E(xc)   XCENC  =      5554.12022740
  PAW double counting   =    166881.96898370  -175457.66391990
  entropy T*S    EENTRO =        -0.53198472
  eigenvalues    EBANDS =    -21146.32828878
  atomic energy  EATOM  =    224013.29143063
  Solvation  Ediel_sol  =         0.00000000
  ---------------------------------------------------
  free energy    TOTEN  =      -399.56683335 eV

  energy without entropy =     -399.03484863  energy(sigma->0) =     -399.38950511


--------------------------------------------------------------------------------------------------------




----------------------------------------- Iteration    1(   7)  ---------------------------------------


    POTLOK:  cpu time    2.7696: real time    2.7673
    SETDIJ:  cpu time    0.3959: real time    0.3955
     EDDAV:  cpu time  491.3333: real time  490.9239
       DOS:  cpu time    0.0150: real time    0.0154
    CHARGE:  cpu time   26.1970: real time   26.1746
    MIXING:  cpu time    0.0660: real time    0.0657
    --------------------------------------------
      LOOP:  cpu time  520.7768: real time  520.3431

 eigenvalue-minimisations  : 10776
 total energy-change (2. order) : 0.4238527E+02  (-0.1603289E+02)
 number of electron    1023.9999788 magnetization      49.0103923
 augmentation part      607.0394348 magnetization      40.0171634

 Broyden mixing:
  rms(total) = 0.59847E+00    rms(broyden)= 0.59762E+00
  rms(prec ) = 0.68686E+00
  weight for this iteration     100.00

 eigenvalues of (default mixing * dielectric matrix)
  average eigenvalue GAMMA=   0.6810
  0.8179  0.5442

 Free energy of the ion-electron system (eV)
  ---------------------------------------------------
  alpha Z        PSCENC =      8266.97428417
  Ewald energy   TEWEN  =   -144746.26977666
  -Hartree energ DENC   =    -65152.65676367
  -exchange      EXHF   =         0.00000000
  -V(xc)+E(xc)   XCENC  =      5605.49942882
  PAW double counting   =    169653.09928615  -178515.61979960
  entropy T*S    EENTRO =        -0.10946569
  eigenvalues    EBANDS =    -19481.39018349
  atomic energy  EATOM  =    224013.29143063
  Solvation  Ediel_sol  =         0.00000000
  ---------------------------------------------------
  free energy    TOTEN  =      -357.18155934 eV

  energy without entropy =     -357.07209365  energy(sigma->0) =     -357.14507078


--------------------------------------------------------------------------------------------------------




----------------------------------------- Iteration    1(   8)  ---------------------------------------


    POTLOK:  cpu time    2.7726: real time    2.7696
    SETDIJ:  cpu time    0.3949: real time    0.3955
     EDDAV:  cpu time  491.7082: real time  491.2992
       DOS:  cpu time    0.0150: real time    0.0155
    CHARGE:  cpu time   26.2970: real time   26.2748
    MIXING:  cpu time    0.0690: real time    0.0680
    --------------------------------------------
      LOOP:  cpu time  521.2578: real time  520.8234

 eigenvalue-minimisations  : 10782
 total energy-change (2. order) :-0.2583931E+00  (-0.1602994E+00)
 number of electron    1023.9999788 magnetization      45.4278816
 augmentation part      606.3015774 magnetization      37.8534787

 Broyden mixing:
  rms(total) = 0.32726E+00    rms(broyden)= 0.32718E+00
  rms(prec ) = 0.42578E+00
  weight for this iteration     100.00

 eigenvalues of (default mixing * dielectric matrix)
  average eigenvalue GAMMA=   1.0919
  0.5505  0.8513  1.8739

 Free energy of the ion-electron system (eV)
  ---------------------------------------------------
  alpha Z        PSCENC =      8266.97428417
  Ewald energy   TEWEN  =   -144746.26977666
  -Hartree energ DENC   =    -65067.97851921
  -exchange      EXHF   =         0.00000000
  -V(xc)+E(xc)   XCENC  =      5603.57617205
  PAW double counting   =    169964.53980310  -178903.67711817
  entropy T*S    EENTRO =        -0.09181344
  eigenvalues    EBANDS =    -19487.80441490
  atomic energy  EATOM  =    224013.29143063
  Solvation  Ediel_sol  =         0.00000000
  ---------------------------------------------------
  free energy    TOTEN  =      -357.43995243 eV

  energy without entropy =     -357.34813899  energy(sigma->0) =     -357.40934795


--------------------------------------------------------------------------------------------------------




----------------------------------------- Iteration    1(   9)  ---------------------------------------


    POTLOK:  cpu time    2.7666: real time    2.7642
    SETDIJ:  cpu time    0.3959: real time    0.3957
     EDDAV:  cpu time  500.0230: real time  499.6070
       DOS:  cpu time    0.0160: real time    0.0151
    CHARGE:  cpu time   26.3790: real time   26.3577
    MIXING:  cpu time    0.0710: real time    0.0707
    --------------------------------------------
      LOOP:  cpu time  529.6515: real time  529.2111

 eigenvalue-minimisations  : 11014
 total energy-change (2. order) : 0.9049195E-01  (-0.3480191E-01)
 number of electron    1023.9999788 magnetization      45.4615371
 augmentation part      607.2100911 magnetization      39.1486694

 Broyden mixing:
  rms(total) = 0.83378E-01    rms(broyden)= 0.83359E-01
  rms(prec ) = 0.86692E-01
  weight for this iteration     100.00

 eigenvalues of (default mixing * dielectric matrix)
  average eigenvalue GAMMA=   1.0819
  2.2526  0.8891  0.5584  0.6277

 Free energy of the ion-electron system (eV)
  ---------------------------------------------------
  alpha Z        PSCENC =      8266.97428417
  Ewald energy   TEWEN  =   -144746.26977666
  -Hartree energ DENC   =    -64907.19506882
  -exchange      EXHF   =         0.00000000
  -V(xc)+E(xc)   XCENC  =      5598.90124821
  PAW double counting   =    170238.53824669  -179250.91390644
  entropy T*S    EENTRO =        -0.09809474
  eigenvalues    EBANDS =    -19570.57782351
  atomic energy  EATOM  =    224013.29143063
  Solvation  Ediel_sol  =         0.00000000
  ---------------------------------------------------
  free energy    TOTEN  =      -357.34946048 eV

  energy without entropy =     -357.25136574  energy(sigma->0) =     -357.31676223


--------------------------------------------------------------------------------------------------------




----------------------------------------- Iteration    1(  10)  ---------------------------------------


    POTLOK:  cpu time    2.7666: real time    2.7647
    SETDIJ:  cpu time    0.3959: real time    0.3955
     EDDAV:  cpu time  511.6652: real time  511.2389
       DOS:  cpu time    0.0150: real time    0.0149
    CHARGE:  cpu time   26.3150: real time   26.2934
    MIXING:  cpu time    0.0750: real time    0.0737
    --------------------------------------------
      LOOP:  cpu time  541.2337: real time  540.7817

 eigenvalue-minimisations  : 11352
 total energy-change (2. order) :-0.5860526E-02  (-0.1611356E-02)
 number of electron    1023.9999788 magnetization      45.8701330
 augmentation part      607.1664724 magnetization      39.4984662

 Broyden mixing:
  rms(total) = 0.36486E-01    rms(broyden)= 0.36470E-01
  rms(prec ) = 0.38973E-01
  weight for this iteration     100.00

 eigenvalues of (default mixing * dielectric matrix)
  average eigenvalue GAMMA=   1.1564
  2.3249  1.3085  0.9727  0.5541  0.6218

 Free energy of the ion-electron system (eV)
  ---------------------------------------------------
  alpha Z        PSCENC =      8266.97428417
  Ewald energy   TEWEN  =   -144746.26977666
  -Hartree energ DENC   =    -64900.55410238
  -exchange      EXHF   =         0.00000000
  -V(xc)+E(xc)   XCENC  =      5598.76825168
  PAW double counting   =    170310.37043143  -179329.16082000
  entropy T*S    EENTRO =        -0.09706630
  eigenvalues    EBANDS =    -19570.67795357
  atomic energy  EATOM  =    224013.29143063
  Solvation  Ediel_sol  =         0.00000000
  ---------------------------------------------------
  free energy    TOTEN  =      -357.35532100 eV

  energy without entropy =     -357.25825470  energy(sigma->0) =     -357.32296557


--------------------------------------------------------------------------------------------------------




----------------------------------------- Iteration    1(  11)  ---------------------------------------


    POTLOK:  cpu time    2.7666: real time    2.7647
    SETDIJ:  cpu time    0.3959: real time    0.3955
     EDDAV:  cpu time  494.7108: real time  494.2992
       DOS:  cpu time    0.0150: real time    0.0154
    CHARGE:  cpu time   25.4231: real time   25.4021
    MIXING:  cpu time    0.0770: real time    0.0765
    --------------------------------------------
      LOOP:  cpu time  523.3894: real time  522.9542

 eigenvalue-minimisations  : 10902
 total energy-change (2. order) :-0.3775670E-02  (-0.8986298E-03)
 number of electron    1023.9999788 magnetization      45.9572504
 augmentation part      607.0269362 magnetization      39.4162481

 Broyden mixing:
  rms(total) = 0.13693E-01    rms(broyden)= 0.13675E-01
  rms(prec ) = 0.17167E-01
  weight for this iteration     100.00

 eigenvalues of (default mixing * dielectric matrix)
  average eigenvalue GAMMA=   1.1894
  2.4351  1.8103  0.9480  0.5511  0.7571  0.6346

 Free energy of the ion-electron system (eV)
  ---------------------------------------------------
  alpha Z        PSCENC =      8266.97428417
  Ewald energy   TEWEN  =   -144746.26977666
  -Hartree energ DENC   =    -64905.94672674
  -exchange      EXHF   =         0.00000000
  -V(xc)+E(xc)   XCENC  =      5598.94581901
  PAW double counting   =    170397.50991669  -179417.81761415
  entropy T*S    EENTRO =        -0.09605688
  eigenvalues    EBANDS =    -19563.95037275
  atomic energy  EATOM  =    224013.29143063
  Solvation  Ediel_sol  =         0.00000000
  ---------------------------------------------------
  free energy    TOTEN  =      -357.35909667 eV

  energy without entropy =     -357.26303979  energy(sigma->0) =     -357.32707771


--------------------------------------------------------------------------------------------------------




----------------------------------------- Iteration    1(  12)  ---------------------------------------


    POTLOK:  cpu time    2.7686: real time    2.7659
    SETDIJ:  cpu time    0.3959: real time    0.3956
     EDDAV:  cpu time  505.1512: real time  504.7305
       DOS:  cpu time    0.0150: real time    0.0154
    CHARGE:  cpu time   25.4911: real time   25.4698
    MIXING:  cpu time    0.0790: real time    0.0796
    --------------------------------------------
      LOOP:  cpu time  533.9018: real time  533.4575

 eigenvalue-minimisations  : 11188
 total energy-change (2. order) :-0.3144296E-04  (-0.9091824E-04)
 number of electron    1023.9999788 magnetization      45.9614955
 augmentation part      607.0849779 magnetization      39.3943928

 Broyden mixing:
  rms(total) = 0.21084E-02    rms(broyden)= 0.20965E-02
  rms(prec ) = 0.22595E-02
  weight for this iteration     100.00

 eigenvalues of (default mixing * dielectric matrix)
  average eigenvalue GAMMA=   1.1818
  2.4746  1.9246  0.9685  0.9685  0.5518  0.6277  0.7572

 Free energy of the ion-electron system (eV)
  ---------------------------------------------------
  alpha Z        PSCENC =      8266.97428417
  Ewald energy   TEWEN  =   -144746.26977666
  -Hartree energ DENC   =    -64902.97862475
  -exchange      EXHF   =         0.00000000
  -V(xc)+E(xc)   XCENC  =      5598.83127758
  PAW double counting   =    170417.93021995  -179437.77422092
  entropy T*S    EENTRO =        -0.09751655
  eigenvalues    EBANDS =    -19567.26620157
  atomic energy  EATOM  =    224013.29143063
  Solvation  Ediel_sol  =         0.00000000
  ---------------------------------------------------
  free energy    TOTEN  =      -357.35912812 eV

  energy without entropy =     -357.26161156  energy(sigma->0) =     -357.32662260


--------------------------------------------------------------------------------------------------------




----------------------------------------- Iteration    1(  13)  ---------------------------------------


    POTLOK:  cpu time    2.7696: real time    2.7675
    SETDIJ:  cpu time    0.3959: real time    0.3954
     EDDAV:  cpu time  503.6684: real time  503.2491
       DOS:  cpu time    0.0150: real time    0.0149
    CHARGE:  cpu time   25.4431: real time   25.4209
    MIXING:  cpu time    0.0830: real time    0.0830
    --------------------------------------------
      LOOP:  cpu time  532.3761: real time  531.9313

 eigenvalue-minimisations  : 11228
 total energy-change (2. order) : 0.6808230E-05  (-0.5293799E-05)
 number of electron    1023.9999788 magnetization      45.9579185
 augmentation part      607.0985056 magnetization      39.3922925

 Broyden mixing:
  rms(total) = 0.18132E-02    rms(broyden)= 0.18127E-02
  rms(prec ) = 0.23537E-02
  weight for this iteration     100.00

 eigenvalues of (default mixing * dielectric matrix)
  average eigenvalue GAMMA=   1.2095
  2.4573  1.9731  1.5439  0.9804  0.5523  0.7728  0.7728  0.6236

 Free energy of the ion-electron system (eV)
  ---------------------------------------------------
  alpha Z        PSCENC =      8266.97428417
  Ewald energy   TEWEN  =   -144746.26977666
  -Hartree energ DENC   =    -64902.73418224
  -exchange      EXHF   =         0.00000000
  -V(xc)+E(xc)   XCENC  =      5598.82306443
  PAW double counting   =    170423.73644487  -179443.10156784
  entropy T*S    EENTRO =        -0.09769193
  eigenvalues    EBANDS =    -19567.98112673
  atomic energy  EATOM  =    224013.29143063
  Solvation  Ediel_sol  =         0.00000000
  ---------------------------------------------------
  free energy    TOTEN  =      -357.35912131 eV

  energy without entropy =     -357.26142937  energy(sigma->0) =     -357.32655733


--------------------------------------------------------------------------------------------------------




----------------------------------------- Iteration    1(  14)  ---------------------------------------


    POTLOK:  cpu time    2.7686: real time    2.7667
    SETDIJ:  cpu time    0.3959: real time    0.3955
     EDDAV:  cpu time  387.5181: real time  387.1950
       DOS:  cpu time    0.0140: real time    0.0146
    CHARGE:  cpu time   25.5171: real time   25.4943
    MIXING:  cpu time    0.0860: real time    0.0865
    --------------------------------------------
      LOOP:  cpu time  416.2997: real time  415.9534

 eigenvalue-minimisations  :  7842
 total energy-change (2. order) : 0.1893850E-04  (-0.4170326E-06)
 number of electron    1023.9999788 magnetization      45.9565608
 augmentation part      607.0952283 magnetization      39.3926846

 Broyden mixing:
  rms(total) = 0.97248E-03    rms(broyden)= 0.97247E-03
  rms(prec ) = 0.11922E-02
  weight for this iteration     100.00

 eigenvalues of (default mixing * dielectric matrix)
  average eigenvalue GAMMA=   1.2563
  2.4871  2.4871  1.8399  0.9493  0.9493  0.7925  0.5520  0.6297  0.6202

 Free energy of the ion-electron system (eV)
  ---------------------------------------------------
  alpha Z        PSCENC =      8266.97428417
  Ewald energy   TEWEN  =   -144746.26977666
  -Hartree energ DENC   =    -64903.25367900
  -exchange      EXHF   =         0.00000000
  -V(xc)+E(xc)   XCENC  =      5598.84309340
  PAW double counting   =    170429.15203440  -179448.22045540
  entropy T*S    EENTRO =        -0.09762518
  eigenvalues    EBANDS =    -19567.77840873
  atomic energy  EATOM  =    224013.29143063
  Solvation  Ediel_sol  =         0.00000000
  ---------------------------------------------------
  free energy    TOTEN  =      -357.35910237 eV

  energy without entropy =     -357.26147719  energy(sigma->0) =     -357.32656064


--------------------------------------------------------------------------------------------------------




----------------------------------------- Iteration    1(  15)  ---------------------------------------


    POTLOK:  cpu time    2.7716: real time    2.7706
    SETDIJ:  cpu time    0.3969: real time    0.3955
     EDDAV:  cpu time  349.0459: real time  348.7548
       DOS:  cpu time    0.0150: real time    0.0154
    CHARGE:  cpu time   25.4571: real time   25.4357
    MIXING:  cpu time    0.0900: real time    0.0905
    --------------------------------------------
      LOOP:  cpu time  377.7776: real time  377.4631

 eigenvalue-minimisations  :  6730
 total energy-change (2. order) : 0.8839852E-05  (-0.2493819E-06)
 number of electron    1023.9999788 magnetization      45.9557577
 augmentation part      607.0914139 magnetization      39.3917096

 Broyden mixing:
  rms(total) = 0.10706E-03    rms(broyden)= 0.10668E-03
  rms(prec ) = 0.11947E-03
  weight for this iteration     100.00

 eigenvalues of (default mixing * dielectric matrix)
  average eigenvalue GAMMA=   1.2380
  2.6243  2.4400  1.8673  1.0179  1.0179  0.5520  0.7964  0.7964  0.6281  0.6398

 Free energy of the ion-electron system (eV)
  ---------------------------------------------------
  alpha Z        PSCENC =      8266.97428417
  Ewald energy   TEWEN  =   -144746.26977666
  -Hartree energ DENC   =    -64903.58104156
  -exchange      EXHF   =         0.00000000
  -V(xc)+E(xc)   XCENC  =      5598.85526018
  PAW double counting   =    170431.84356599  -179450.80991584
  entropy T*S    EENTRO =        -0.09756157
  eigenvalues    EBANDS =    -19567.56533886
  atomic energy  EATOM  =    224013.29143063
  Solvation  Ediel_sol  =         0.00000000
  ---------------------------------------------------
  free energy    TOTEN  =      -357.35909353 eV

  energy without entropy =     -357.26153196  energy(sigma->0) =     -357.32657300


--------------------------------------------------------------------------------------------------------




----------------------------------------- Iteration    1(  16)  ---------------------------------------


    POTLOK:  cpu time    2.7726: real time    2.7706
    SETDIJ:  cpu time    0.3949: real time    0.3949
     EDDAV:  cpu time  302.5410: real time  302.2892
       DOS:  cpu time    0.0150: real time    0.0143
    --------------------------------------------
      LOOP:  cpu time  305.7255: real time  305.4695

 eigenvalue-minimisations  :  5412
 total energy-change (2. order) :-0.4766043E-06  (-0.1541053E-07)
 number of electron    1023.9999788 magnetization      45.9557577
 augmentation part      607.0914139 magnetization      39.3917096

 Free energy of the ion-electron system (eV)
  ---------------------------------------------------
  alpha Z        PSCENC =      8266.97428417
  Ewald energy   TEWEN  =   -144746.26977666
  -Hartree energ DENC   =    -64903.56386985
  -exchange      EXHF   =         0.00000000
  -V(xc)+E(xc)   XCENC  =      5598.85470091
  PAW double counting   =    170431.81602671  -179450.79271030
  entropy T*S    EENTRO =        -0.09755900
  eigenvalues    EBANDS =    -19567.57162062
  atomic energy  EATOM  =    224013.29143063
  Solvation  Ediel_sol  =         0.00000000
  ---------------------------------------------------
  free energy    TOTEN  =      -357.35909401 eV

  energy without entropy =     -357.26153500  energy(sigma->0) =     -357.32657434


--------------------------------------------------------------------------------------------------------




 average (electrostatic) potential at core
  the test charge radii are     0.8614
  (the norm of the test charge is              1.0000)
       1 -81.2029       2 -81.2029       3 -81.2029       4 -81.2029       5 -81.2029
       6 -81.2029       7 -81.2029       8 -81.2029       9 -81.2029      10 -81.2029
      11 -81.2029      12 -81.2029      13 -81.2029      14 -81.2029      15 -81.2029
      16 -81.2029      17 -81.2029      18 -81.2029      19 -81.2029      20 -81.2029
      21 -81.2029      22 -81.2029      23 -81.2029      24 -81.2029      25 -81.2029
      26 -81.2029      27 -81.2029      28 -81.2029      29 -81.2029      30 -81.2029
      31 -81.2029      32 -81.2029      33 -81.2029      34 -81.2029      35 -81.2029
      36 -81.2029      37 -81.2029      38 -81.2029      39 -81.2029      40 -81.2029
      41 -81.2029      42 -81.2029      43 -81.2029      44 -81.2029      45 -81.2029
      46 -81.2029      47 -81.2029      48 -81.2029      49 -81.2029      50 -81.2029
      51 -81.2029      52 -81.2029      53 -81.2029      54 -81.2029      55 -81.2029
      56 -81.2029      57 -81.2029      58 -81.2029      59 -81.2029      60 -81.2029
      61 -81.2029      62 -81.2029      63 -81.2029      64 -81.2029
 
 
 
 E-fermi :   5.8181     XC(G=0): -12.6627     alpha+bet :-12.4150


 spin component 1

 k-point     1 :       0.0000    0.0000    0.0000
  band No.  band energies     occupation 
      1     -57.9788      1.00000
      2     -57.9788      1.00000
      3     -57.9788      1.00000
      4     -57.9781      1.00000
      5     -57.9781      1.00000
      6     -57.9781      1.00000
      7     -57.9781      1.00000
      8     -57.9582      1.00000
      9     -57.9582      1.00000
     10     -57.9582      1.00000
     11     -57.9582      1.00000
     12     -57.9582      1.00000
     13     -57.9582      1.00000
     14     -57.9582      1.00000
     15     -57.9582      1.00000
     16     -57.9582      1.00000
     17     -57.9582      1.00000
     18     -57.9582      1.00000
     19     -57.9582      1.00000
     20     -57.9582      1.00000
     21     -57.9582      1.00000
     22     -57.9582      1.00000
     23     -57.9582      1.00000
     24     -57.9582      1.00000
     25     -57.9582      1.00000
     26     -57.9581      1.00000
     27     -57.9581      1.00000
     28     -57.9581      1.00000
     29     -57.9581      1.00000
     30     -57.9581      1.00000
     31     -57.9581      1.00000
     32     -57.9466      1.00000
     33     -57.9466      1.00000
     34     -57.9466      1.00000
     35     -57.9466      1.00000
     36     -57.9466      1.00000
     37     -57.9466      1.00000
     38     -57.9465      1.00000
     39     -57.9465      1.00000
     40     -57.9465      1.00000
     41     -57.9465      1.00000
     42     -57.9465      1.00000
     43     -57.9465      1.00000
     44     -57.9414      1.00000
     45     -57.9414      1.00000
     46     -57.9414      1.00000
     47     -57.9414      1.00000
     48     -57.9414      1.00000
     49     -57.9414      1.00000
     50     -57.9414      1.00000
     51     -57.9414      1.00000
     52     -57.9414      1.00000
     53     -57.9414      1.00000
     54     -57.9414      1.00000
     55     -57.9414      1.00000
     56     -57.9256      1.00000
     57     -57.9256      1.00000
     58     -57.9255      1.00000
     59     -57.9255      1.00000
     60     -57.9255      1.00000
     61     -57.9255      1.00000
     62     -57.9255      1.00000
     63     -57.9255      1.00000
     64     -57.9184      1.00000
     65     -57.9184      1.00000
     66     -57.9184      1.00000
     67     -57.9184      1.00000
     68     -57.9184      1.00000
     69     -57.9184      1.00000
     70     -57.9156      1.00000
     71     -57.9156      1.00000
     72     -57.9156      1.00000
     73     -57.9156      1.00000
     74     -57.9156      1.00000
     75     -57.9156      1.00000
     76     -57.9139      1.00000
     77     -57.9139      1.00000
     78     -57.9139      1.00000
     79     -57.9139      1.00000
     80     -57.9139      1.00000
     81     -57.9139      1.00000
     82     -57.9139      1.00000
     83     -57.9139      1.00000
     84     -57.9139      1.00000
     85     -57.9139      1.00000
     86     -57.9139      1.00000
     87     -57.9139      1.00000
     88     -57.9100      1.00000
     89     -57.9100      1.00000
     90     -57.9100      1.00000
     91     -57.9100      1.00000
     92     -57.9100      1.00000
     93     -57.9100      1.00000
     94     -57.9100      1.00000
     95     -57.9100      1.00000
     96     -57.9100      1.00000
     97     -57.9100      1.00000
     98     -57.9100      1.00000
     99     -57.9100      1.00000
    100     -57.9100      1.00000
    101     -57.9100      1.00000
    102     -57.9100      1.00000
    103     -57.9100      1.00000
    104     -57.9100      1.00000
    105     -57.9100      1.00000
    106     -57.9100      1.00000
    107     -57.9100      1.00000
    108     -57.9100      1.00000
    109     -57.9100      1.00000
    110     -57.9100      1.00000
    111     -57.9100      1.00000
    112     -57.9060      1.00000
    113     -57.9060      1.00000
    114     -57.9060      1.00000
    115     -57.9060      1.00000
    116     -57.9060      1.00000
    117     -57.9060      1.00000
    118     -57.8967      1.00000
    119     -57.8967      1.00000
    120     -57.8967      1.00000
    121     -57.8967      1.00000
    122     -57.8967      1.00000
    123     -57.8967      1.00000
    124     -57.8967      1.00000
    125     -57.8967      1.00000
    126     -57.8967      1.00000
    127     -57.8967      1.00000
    128     -57.8967      1.00000
    129     -57.8967      1.00000
    130     -57.8966      1.00000
    131     -57.8966      1.00000
    132     -57.8966      1.00000
    133     -57.8966      1.00000
    134     -57.8966      1.00000
    135     -57.8966      1.00000
    136     -57.8966      1.00000
    137     -57.8966      1.00000
    138     -57.8966      1.00000
    139     -57.8966      1.00000
    140     -57.8966      1.00000
    141     -57.8966      1.00000
    142     -57.8802      1.00000
    143     -57.8802      1.00000
    144     -57.8802      1.00000
    145     -57.8802      1.00000
    146     -57.8802      1.00000
    147     -57.8802      1.00000
    148     -57.8802      1.00000
    149     -57.8802      1.00000
    150     -57.8802      1.00000
    151     -57.8802      1.00000
    152     -57.8802      1.00000
    153     -57.8802      1.00000
    154     -57.8799      1.00000
    155     -57.8799      1.00000
    156     -57.8799      1.00000
    157     -57.8799      1.00000
    158     -57.8799      1.00000
    159     -57.8799      1.00000
    160     -57.8799      1.00000
    161     -57.8799      1.00000
    162     -57.8799      1.00000
    163     -57.8799      1.00000
    164     -57.8799      1.00000
    165     -57.8799      1.00000
    166     -57.8788      1.00000
    167     -57.8788      1.00000
    168     -57.8788      1.00000
    169     -57.8788      1.00000
    170     -57.8788      1.00000
    171     -57.8788      1.00000
    172     -57.8788      1.00000
    173     -57.8788      1.00000
    174     -57.8693      1.00000
    175     -57.8693      1.00000
    176     -57.8693      1.00000
    177     -57.8693      1.00000
    178     -57.8693      1.00000
    179     -57.8693      1.00000
    180     -57.8693      1.00000
    181     -57.8693      1.00000
    182     -57.8693      1.00000
    183     -57.8693      1.00000
    184     -57.8693      1.00000
    185     -57.8693      1.00000
    186     -57.8693      1.00000
    187     -57.8693      1.00000
    188     -57.8693      1.00000
    189     -57.8693      1.00000
    190     -57.8471      1.00000
    191     -57.8470      1.00000
    192     -57.8470      1.00000
    193      -2.0571      1.00000
    194      -0.0743      1.00000
    195      -0.0743      1.00000
    196      -0.0743      1.00000
    197      -0.0743      1.00000
    198      -0.0743      1.00000
    199      -0.0742      1.00000
    200      -0.0742      1.00000
    201      -0.0742      1.00000
    202       0.5287      1.00000
    203       0.5287      1.00000
    204       0.5287      1.00000
    205       0.5287      1.00000
    206       0.5287      1.00000
    207       0.5287      1.00000
    208       1.7995      1.00000
    209       1.7995      1.00000
    210       1.7995      1.00000
    211       1.7995      1.00000
    212       2.0477      1.00000
    213       2.0477      1.00000
    214       2.0477      1.00000
    215       2.2415      1.00000
    216       2.2415      1.00000
    217       2.2415      1.00000
    218       2.2415      1.00000
    219       2.2415      1.00000
    220       2.2415      1.00000
    221       2.2416      1.00000
    222       2.2416      1.00000
    223       2.2416      1.00000
    224       2.2416      1.00000
    225       2.2416      1.00000
    226       2.2416      1.00000
    227       2.3807      1.00000
    228       2.3807      1.00000
    229       2.3807      1.00000
    230       2.4378      1.00000
    231       2.4378      1.00000
    232       2.4378      1.00000
    233       2.4378      1.00000
    234       2.4378      1.00000
    235       2.4378      1.00000
    236       2.4378      1.00000
    237       2.4378      1.00000
    238       2.4378      1.00000
    239       2.4378      1.00000
    240       2.4378      1.00000
    241       2.4378      1.00000
    242       2.4378      1.00000
    243       2.4378      1.00000
    244       2.4378      1.00000
    245       2.4378      1.00000
    246       2.4378      1.00000
    247       2.4378      1.00000
    248       2.4378      1.00000
    249       2.4378      1.00000
    250       2.4378      1.00000
    251       2.4378      1.00000
    252       2.4378      1.00000
    253       2.4378      1.00000
    254       2.7570      1.00000
    255       2.7570      1.00000
    256       2.7570      1.00000
    257       2.7570      1.00000
    258       2.7570      1.00000
    259       2.7570      1.00000
    260       2.9830      1.00000
    261       2.9830      1.00000
    262       2.9830      1.00000
    263       2.9830      1.00000
    264       2.9830      1.00000
    265       2.9830      1.00000
    266       2.9830      1.00000
    267       2.9830      1.00000
    268       2.9830      1.00000
    269       2.9830      1.00000
    270       2.9830      1.00000
    271       2.9830      1.00000
    272       2.9830      1.00000
    273       2.9830      1.00000
    274       2.9830      1.00000
    275       2.9830      1.00000
    276       2.9830      1.00000
    277       2.9830      1.00000
    278       2.9830      1.00000
    279       2.9830      1.00000
    280       2.9831      1.00000
    281       2.9831      1.00000
    282       2.9831      1.00000
    283       2.9831      1.00000
    284       3.0301      1.00000
    285       3.0301      1.00000
    286       3.0301      1.00000
    287       3.0301      1.00000
    288       3.0301      1.00000
    289       3.0301      1.00000
    290       3.2457      1.00000
    291       3.2457      1.00000
    292       3.2457      1.00000
    293       3.2457      1.00000
    294       3.2457      1.00000
    295       3.2457      1.00000
    296       3.2457      1.00000
    297       3.2457      1.00000
    298       3.2457      1.00000
    299       3.2457      1.00000
    300       3.2457      1.00000
    301       3.2457      1.00000
    302       3.2469      1.00000
    303       3.2469      1.00000
    304       3.2469      1.00000
    305       3.2469      1.00000
    306       3.2469      1.00000
    307       3.2469      1.00000
    308       3.2469      1.00000
    309       3.2469      1.00000
    310       3.2469      1.00000
    311       3.2469      1.00000
    312       3.2469      1.00000
    313       3.2469      1.00000
    314       3.4883      1.00000
    315       3.4883      1.00000
    316       3.4883      1.00000
    317       3.4883      1.00000
    318       3.4883      1.00000
    319       3.4883      1.00000
    320       3.4883      1.00000
    321       3.4883      1.00000
    322       3.5131      1.00000
    323       3.5131      1.00000
    324       3.5131      1.00000
    325       3.5131      1.00000
    326       3.5131      1.00000
    327       3.5131      1.00000
    328       3.5131      1.00000
    329       3.5131      1.00000
    330       3.5131      1.00000
    331       3.5131      1.00000
    332       3.5131      1.00000
    333       3.5131      1.00000
    334       3.7168      1.00000
    335       3.7168      1.00000
    336       3.7168      1.00000
    337       3.7436      1.00000
    338       3.7436      1.00000
    339       3.7436      1.00000
    340       3.7436      1.00000
    341       3.7437      1.00000
    342       3.7437      1.00000
    343       3.7437      1.00000
    344       3.7437      1.00000
    345       3.7701      1.00000
    346       3.7701      1.00000
    347       3.7701      1.00000
    348       3.7701      1.00000
    349       3.7701      1.00000
    350       3.7701      1.00000
    351       3.7701      1.00000
    352       3.7701      1.00000
    353       3.7701      1.00000
    354       3.7701      1.00000
    355       3.7701      1.00000
    356       3.7701      1.00000
    357       3.7701      1.00000
    358       3.7701      1.00000
    359       3.7701      1.00000
    360       3.7701      1.00000
    361       3.7701      1.00000
    362       3.7701      1.00000
    363       3.7701      1.00000
    364       3.7701      1.00000
    365       3.7701      1.00000
    366       3.7701      1.00000
    367       3.7701      1.00000
    368       3.7701      1.00000
    369       3.8945      1.00000
    370       3.8945      1.00000
    371       3.8945      1.00000
    372       3.8945      1.00000
    373       3.8945      1.00000
    374       3.8945      1.00000
    375       3.8945      1.00000
    376       3.8945      1.00000
    377       3.8945      1.00000
    378       3.8945      1.00000
    379       3.8945      1.00000
    380       3.8945      1.00000
    381       3.8945      1.00000
    382       3.8945      1.00000
    383       3.8945      1.00000
    384       3.8945      1.00000
    385       4.1818      1.00000
    386       4.1818      1.00000
    387       4.1818      1.00000
    388       4.1818      1.00000
    389       4.1818      1.00000
    390       4.1818      1.00000
    391       4.3045      1.00000
    392       4.3045      1.00000
    393       4.3045      1.00000
    394       4.3045      1.00000
    395       4.3045      1.00000
    396       4.3045      1.00000
    397       4.3045      1.00000
    398       4.3045      1.00000
    399       4.3045      1.00000
    400       4.3045      1.00000
    401       4.3045      1.00000
    402       4.3045      1.00000
    403       4.3532      1.00000
    404       4.3532      1.00000
    405       4.3532      1.00000
    406       4.3532      1.00000
    407       4.3532      1.00000
    408       4.3532      1.00000
    409       4.3532      1.00000
    410       4.3532      1.00000
    411       4.3532      1.00000
    412       4.3532      1.00000
    413       4.3532      1.00000
    414       4.3532      1.00000
    415       4.3978      1.00000
    416       4.3979      1.00000
    417       4.3979      1.00000
    418       4.3979      1.00000
    419       4.3979      1.00000
    420       4.3979      1.00000
    421       4.3979      1.00000
    422       4.3979      1.00000
    423       4.3979      1.00000
    424       4.3979      1.00000
    425       4.3979      1.00000
    426       4.3979      1.00000
    427       4.3979      1.00000
    428       4.3979      1.00000
    429       4.3979      1.00000
    430       4.3979      1.00000
    431       4.3979      1.00000
    432       4.3979      1.00000
    433       4.3979      1.00000
    434       4.3979      1.00000
    435       4.3979      1.00000
    436       4.3979      1.00000
    437       4.3979      1.00000
    438       4.3979      1.00000
    439       4.5085      1.00000
    440       4.5085      1.00000
    441       4.5085      1.00000
    442       4.5085      1.00000
    443       4.5085      1.00000
    444       4.5085      1.00000
    445       4.5085      1.00000
    446       4.5085      1.00000
    447       4.5085      1.00000
    448       4.5085      1.00000
    449       4.5085      1.00000
    450       4.5085      1.00000
    451       4.5809      1.00000
    452       4.5809      1.00000
    453       4.5809      1.00000
    454       4.5809      1.00000
    455       4.5809      1.00000
    456       4.5809      1.00000
    457       4.6220      1.00000
    458       4.6220      1.00000
    459       4.6691      1.00000
    460       4.6691      1.00000
    461       4.6691      1.00000
    462       4.6691      1.00000
    463       4.6691      1.00000
    464       4.6691      1.00000
    465       4.6691      1.00000
    466       4.6691      1.00000
    467       4.6691      1.00000
    468       4.6691      1.00000
    469       4.6691      1.00000
    470       4.6691      1.00000
    471       4.6691      1.00000
    472       4.6691      1.00000
    473       4.6691      1.00000
    474       4.6691      1.00000
    475       4.8849      1.00000
    476       4.8849      1.00000
    477       4.8849      1.00000
    478       4.8849      1.00000
    479       4.8849      1.00000
    480       4.8849      1.00000
    481       5.1080      1.00000
    482       5.1080      1.00000
    483       5.1080      1.00000
    484       5.1080      1.00000
    485       5.1080      1.00000
    486       5.1080      1.00000
    487       5.1080      1.00000
    488       5.1080      1.00000
    489       5.1436      1.00001
    490       5.1436      1.00001
    491       5.1436      1.00001
    492       5.1436      1.00001
    493       5.1436      1.00001
    494       5.1436      1.00001
    495       5.1436      1.00001
    496       5.1436      1.00001
    497       5.1436      1.00001
    498       5.1436      1.00001
    499       5.1436      1.00001
    500       5.1436      1.00001
    501       5.1436      1.00001
    502       5.1436      1.00001
    503       5.1436      1.00001
    504       5.1436      1.00001
    505       5.1436      1.00001
    506       5.1436      1.00001
    507       5.1436      1.00001
    508       5.1436      1.00001
    509       5.1436      1.00001
    510       5.1436      1.00001
    511       5.1436      1.00001
    512       5.1436      1.00001
    513       5.1559      1.00001
    514       5.1559      1.00001
    515       5.1559      1.00001
    516       5.1968      1.00005
    517       5.1968      1.00005
    518       5.1968      1.00005
    519       5.1969      1.00005
    520       5.1969      1.00005
    521       5.1969      1.00005
    522       5.1985      1.00005
    523       5.1985      1.00005
    524       5.1985      1.00005
    525       5.1985      1.00005
    526       5.1985      1.00005
    527       5.1985      1.00005
    528       5.7979      0.58479
    529       5.7979      0.58479
    530       5.7979      0.58477
    531       5.7980      0.58455
    532       6.4052     -0.00013
    533       6.4052     -0.00013
    534       6.4052     -0.00013
    535       6.4052     -0.00013
    536       6.4052     -0.00013
    537       6.4052     -0.00013
    538       6.4052     -0.00013
    539       6.4052     -0.00013
    540       6.4052     -0.00013
    541       6.4052     -0.00013
    542       6.4052     -0.00013
    543       6.4052     -0.00013
    544       7.6082     -0.00000
    545       7.6082     -0.00000
    546       7.6082     -0.00000
    547       7.6082     -0.00000
    548       7.6082     -0.00000
    549       7.6082     -0.00000
    550       7.6082     -0.00000
    551       7.6082     -0.00000
    552       7.6082     -0.00000
    553       7.6082     -0.00000
    554       7.6082     -0.00000
    555       7.6082     -0.00000
    556       7.6082     -0.00000
    557       7.6082     -0.00000
    558       7.6082     -0.00000
    559       7.6082     -0.00000
    560       7.6082     -0.00000
    561       7.6082     -0.00000
    562       7.6082     -0.00000
    563       7.6082     -0.00000
    564       7.6082     -0.00000
    565       7.6083     -0.00000
    566       7.6083     -0.00000
    567       7.6083     -0.00000
    568       8.1308     -0.00000
    569       8.1308     -0.00000
    570       8.1308     -0.00000
    571      10.2597     -0.00000
    572      10.2597     -0.00000
    573      10.2597     -0.00000
    574      10.2597     -0.00000
    575      12.5690      0.00000
    576      12.5690      0.00000
    577      12.5690      0.00000
    578      12.5690      0.00000
    579      12.5690      0.00000
    580      12.5690      0.00000
    581      12.5691      0.00000
    582      12.5691      0.00000
[...]
      7.473000  3.736500  3.736500    -0.000652   -0.000845    0.124995  
      9.341250  5.604750  3.736500    -0.000652   -0.000845    0.124995  
      5.604750  0.000000  5.604750    -0.000652   -0.000845    0.124995  
      7.473000  1.868250  5.604750    -0.000652   -0.000845    0.124995  
      9.341250  3.736500  5.604750    -0.000652   -0.000845    0.124995  
     11.209500  5.604750  5.604750    -0.000652   -0.000845    0.124995  
      0.000000  1.868250  1.868250    -0.000652   -0.000845    0.124995  
      1.868250  3.736500  1.868250    -0.000652   -0.000845    0.124995  
      3.736500  5.604750  1.868250    -0.000652   -0.000845    0.124995  
      5.604750  7.473000  1.868250    -0.000652   -0.000845    0.124995  
      1.868250  1.868250  3.736500    -0.000652   -0.000845    0.124995  
      3.736500  3.736500  3.736500    -0.000652   -0.000845    0.124995  
      5.604750  5.604750  3.736500    -0.000652   -0.000845    0.124995  
      7.473000  7.473000  3.736500    -0.000652   -0.000845    0.124995  
      3.736500  1.868250  5.604750    -0.000652   -0.000845    0.124995  
      5.604750  3.736500  5.604750    -0.000652   -0.000845    0.124995  
      7.473000  5.604750  5.604750    -0.000652   -0.000845    0.124995  
      9.341250  7.473000  5.604750    -0.000652   -0.000845    0.124995  
      5.604750  1.868250  7.473000    -0.000652   -0.000845    0.124995  
      7.473000  3.736500  7.473000    -0.000652   -0.000845    0.124995  
      9.341250  5.604750  7.473000    -0.000652   -0.000845    0.124995  
     11.209500  7.473000  7.473000    -0.000652   -0.000845    0.124995  
      0.000000  3.736500  3.736500    -0.000652   -0.000845    0.124995  
      1.868250  5.604750  3.736500    -0.000652   -0.000845    0.124995  
      3.736500  7.473000  3.736500    -0.000652   -0.000845    0.124995  
      5.604750  9.341250  3.736500    -0.000652   -0.000845    0.124995  
      1.868250  3.736500  5.604750    -0.000652   -0.000845    0.124995  
      3.736500  5.604750  5.604750    -0.000652   -0.000845    0.124995  
      5.604750  7.473000  5.604750    -0.000652   -0.000845    0.124995  
      7.473000  9.341250  5.604750    -0.000652   -0.000845    0.124995  
      3.736500  3.736500  7.473000    -0.000652   -0.000845    0.124995  
      5.604750  5.604750  7.473000    -0.000652   -0.000845    0.124995  
      7.473000  7.473000  7.473000    -0.000652   -0.000845    0.124995  
      9.341250  9.341250  7.473000    -0.000652   -0.000845    0.124995  
      5.604750  3.736500  9.341250    -0.000652   -0.000845    0.124995  
      7.473000  5.604750  9.341250    -0.000652   -0.000845    0.124995  
      9.341250  7.473000  9.341250    -0.000652   -0.000845    0.124995  
     11.209500  9.341250  9.341250    -0.000652   -0.000845    0.124995  
      0.000000  5.604750  5.604750    -0.000652   -0.000845    0.124995  
      1.868250  7.473000  5.604750    -0.000652   -0.000845    0.124995  
      3.736500  9.341250  5.604750    -0.000652   -0.000845    0.124995  
      5.604750 11.209500  5.604750    -0.000652   -0.000845    0.124995  
      1.868250  5.604750  7.473000    -0.000652   -0.000845    0.124995  
      3.736500  7.473000  7.473000    -0.000652   -0.000845    0.124995  
      5.604750  9.341250  7.473000    -0.000652   -0.000845    0.124995  
      7.473000 11.209500  7.473000    -0.000652   -0.000845    0.124995  
      3.736500  5.604750  9.341250    -0.000652   -0.000845    0.124995  
      5.604750  7.473000  9.341250    -0.000652   -0.000845    0.124995  
      7.473000  9.341250  9.341250    -0.000652   -0.000845    0.124995  
      9.341250 11.209500  9.341250    -0.000652   -0.000845    0.124995  
      5.604750  5.604750 11.209500    -0.000652   -0.000845    0.124995  
      7.473000  7.473000 11.209500    -0.000652   -0.000845    0.124995  
      9.341250  9.341250 11.209500    -0.000652   -0.000845    0.124995  
     11.209500 11.209500 11.209500    -0.000652   -0.000845    0.124995  
 
 192 f/i=    0.000001 THz     0.000004 2PiTHz    0.000022 cm-1     0.000003 meV
             X         Y         Z           dx          dy          dz
      0.000000  0.000000  0.000000     0.099409   -0.075782    0.000006  
      1.868250  1.868250  0.000000     0.099409   -0.075782    0.000006  
      3.736500  3.736500  0.000000     0.099409   -0.075782    0.000006  
      5.604750  5.604750  0.000000     0.099409   -0.075782    0.000006  
      1.868250  0.000000  1.868250     0.099409   -0.075782    0.000006  
      3.736500  1.868250  1.868250     0.099409   -0.075782    0.000006  
      5.604750  3.736500  1.868250     0.099409   -0.075782    0.000006  
      7.473000  5.604750  1.868250     0.099409   -0.075782    0.000006  
      3.736500  0.000000  3.736500     0.099409   -0.075782    0.000006  
      5.604750  1.868250  3.736500     0.099409   -0.075782    0.000006  
      7.473000  3.736500  3.736500     0.099409   -0.075782    0.000006  
      9.341250  5.604750  3.736500     0.099409   -0.075782    0.000006  
      5.604750  0.000000  5.604750     0.099409   -0.075782    0.000006  
      7.473000  1.868250  5.604750     0.099409   -0.075782    0.000006  
      9.341250  3.736500  5.604750     0.099409   -0.075782    0.000006  
     11.209500  5.604750  5.604750     0.099409   -0.075782    0.000006  
      0.000000  1.868250  1.868250     0.099409   -0.075782    0.000006  
      1.868250  3.736500  1.868250     0.099409   -0.075782    0.000006  
      3.736500  5.604750  1.868250     0.099409   -0.075782    0.000006  
      5.604750  7.473000  1.868250     0.099409   -0.075782    0.000006  
      1.868250  1.868250  3.736500     0.099409   -0.075782    0.000006  
      3.736500  3.736500  3.736500     0.099409   -0.075782    0.000006  
      5.604750  5.604750  3.736500     0.099409   -0.075782    0.000006  
      7.473000  7.473000  3.736500     0.099409   -0.075782    0.000006  
      3.736500  1.868250  5.604750     0.099409   -0.075782    0.000006  
      5.604750  3.736500  5.604750     0.099409   -0.075782    0.000006  
      7.473000  5.604750  5.604750     0.099409   -0.075782    0.000006  
      9.341250  7.473000  5.604750     0.099409   -0.075782    0.000006  
      5.604750  1.868250  7.473000     0.099409   -0.075782    0.000006  
      7.473000  3.736500  7.473000     0.099409   -0.075782    0.000006  
      9.341250  5.604750  7.473000     0.099409   -0.075782    0.000006  
     11.209500  7.473000  7.473000     0.099409   -0.075782    0.000006  
      0.000000  3.736500  3.736500     0.099409   -0.075782    0.000006  
      1.868250  5.604750  3.736500     0.099409   -0.075782    0.000006  
      3.736500  7.473000  3.736500     0.099409   -0.075782    0.000006  
      5.604750  9.341250  3.736500     0.099409   -0.075782    0.000006  
      1.868250  3.736500  5.604750     0.099409   -0.075782    0.000006  
      3.736500  5.604750  5.604750     0.099409   -0.075782    0.000006  
      5.604750  7.473000  5.604750     0.099409   -0.075782    0.000006  
      7.473000  9.341250  5.604750     0.099409   -0.075782    0.000006  
      3.736500  3.736500  7.473000     0.099409   -0.075782    0.000006  
      5.604750  5.604750  7.473000     0.099409   -0.075782    0.000006  
      7.473000  7.473000  7.473000     0.099409   -0.075782    0.000006  
      9.341250  9.341250  7.473000     0.099409   -0.075782    0.000006  
      5.604750  3.736500  9.341250     0.099409   -0.075782    0.000006  
      7.473000  5.604750  9.341250     0.099409   -0.075782    0.000006  
      9.341250  7.473000  9.341250     0.099409   -0.075782    0.000006  
     11.209500  9.341250  9.341250     0.099409   -0.075782    0.000006  
      0.000000  5.604750  5.604750     0.099409   -0.075782    0.000006  
      1.868250  7.473000  5.604750     0.099409   -0.075782    0.000006  
      3.736500  9.341250  5.604750     0.099409   -0.075782    0.000006  
      5.604750 11.209500  5.604750     0.099409   -0.075782    0.000006  
      1.868250  5.604750  7.473000     0.099409   -0.075782    0.000006  
      3.736500  7.473000  7.473000     0.099409   -0.075782    0.000006  
      5.604750  9.341250  7.473000     0.099409   -0.075782    0.000006  
      7.473000 11.209500  7.473000     0.099409   -0.075782    0.000006  
      3.736500  5.604750  9.341250     0.099409   -0.075782    0.000006  
      5.604750  7.473000  9.341250     0.099409   -0.075782    0.000006  
      7.473000  9.341250  9.341250     0.099409   -0.075782    0.000006  
      9.341250 11.209500  9.341250     0.099409   -0.075782    0.000006  
      5.604750  5.604750 11.209500     0.099409   -0.075782    0.000006  
      7.473000  7.473000 11.209500     0.099409   -0.075782    0.000006  
      9.341250  9.341250 11.209500     0.099409   -0.075782    0.000006  
     11.209500 11.209500 11.209500     0.099409   -0.075782    0.000006  
 

 ELASTIC MODULI CONTR FROM IONIC RELAXATION (kBar)
 Direction    XX          YY          ZZ          XY          YZ          ZX
 --------------------------------------------------------------------------------
 XX           0.0000     -0.0000      0.0000     -0.0000     -0.0000     -0.0000
 YY          -0.0000     -0.0000      0.0000      0.0000      0.0000      0.0000
 ZZ           0.0000     -0.0000     -0.0000      0.0000      0.0000      0.0000
 XY          -0.0000      0.0000     -0.0000     -0.0000     -0.0000     -0.0000
 YZ          -0.0000      0.0000      0.0000     -0.0000     -0.0000     -0.0000
 ZX          -0.0000      0.0000     -0.0000     -0.0000      0.0000      0.0000
 --------------------------------------------------------------------------------



--------------------------------------------------------------------------------------------------------


  LATTYP: Found a face centered cubic cell.
 ALAT       =    14.9460000000
  
  Lattice vectors:
  
 A1 = (   0.0000000000,   7.4730000000,   7.4730000000)
 A2 = (   7.4730000000,   0.0000000000,   7.4730000000)
 A3 = (   7.4730000000,   7.4730000000,   0.0000000000)


Analysis of symmetry for initial positions (statically):
=====================================================================
 Subroutine PRICEL returns following result:
 
  LATTYP: Found a face centered cubic cell.
 ALAT       =     3.7365000000
  
  Lattice vectors:
  
 A1 = (   0.0000000000,   1.8682500000,   1.8682500000)
 A2 = (   1.8682500000,   0.0000000000,   1.8682500000)
 A3 = (   1.8682500000,   1.8682500000,   0.0000000000)
 
  64 primitive cells build up your supercell.
 

 Routine SETGRP: Setting up the symmetry group for a 
 face centered cubic supercell.


 Subroutine GETGRP returns: Found 48 space group operations
 (whereof 48 operations were pure point group operations)
 out of a pool of 48 trial point group operations.


The static configuration has the point symmetry O_h .


Analysis of symmetry for dynamics (positions and initial velocities):
=====================================================================
 Subroutine PRICEL returns following result:
 
  LATTYP: Found a face centered cubic cell.
 ALAT       =     3.7365000000
  
  Lattice vectors:
  
 A1 = (   0.0000000000,   1.8682500000,   1.8682500000)
 A2 = (   1.8682500000,   0.0000000000,   1.8682500000)
 A3 = (   1.8682500000,   1.8682500000,   0.0000000000)
 
  64 primitive cells build up your supercell.
 

 Routine SETGRP: Setting up the symmetry group for a 
 face centered cubic supercell.


 Subroutine GETGRP returns: Found 48 space group operations
 (whereof 48 operations were pure point group operations)
 out of a pool of 48 trial point group operations.


The dynamic configuration has the point symmetry O_h .


Analysis of structural, dynamic, and magnetic symmetry:
=====================================================================
 Subroutine PRICEL returns following result:
 
  LATTYP: Found a face centered cubic cell.
 ALAT       =     3.7365000000
  
  Lattice vectors:
  
 A1 = (   0.0000000000,   1.8682500000,   1.8682500000)
 A2 = (   1.8682500000,   0.0000000000,   1.8682500000)
 A3 = (   1.8682500000,   1.8682500000,   0.0000000000)
 
  64 primitive cells build up your supercell.
 

 Routine SETGRP: Setting up the symmetry group for a 
 face centered cubic supercell.


 Subroutine GETGRP returns: Found 48 space group operations
 (whereof 48 operations were pure point group operations)
 out of a pool of 48 trial point group operations.


The magnetic configuration has the point symmetry O_h .


 Subroutine INISYM returns: Found 48 space group operations
 (whereof 48 operations are pure point group operations),
 and found    64 'primitive' translations

 
 KPOINTS: Zr 15x15x15                             

Automatic generation of k-mesh.
Space group operators:
 irot       det(A)        alpha          n_x          n_y          n_z        tau_x        tau_y        tau_z
    1     1.000000     0.000000     1.000000     0.000000     0.000000     0.000000     0.000000     0.000000
    2    -1.000000     0.000000     1.000000     0.000000     0.000000     0.000000     0.000000     0.000000
    3     1.000000   120.000000    -0.577350    -0.577350    -0.577350     0.000000     0.000000     0.000000
    4    -1.000000   120.000000    -0.577350    -0.577350    -0.577350     0.000000     0.000000     0.000000
    5     1.000000   120.000000     0.577350     0.577350     0.577350     0.000000     0.000000     0.000000
    6    -1.000000   120.000000     0.577350     0.577350     0.577350     0.000000     0.000000     0.000000
    7     1.000000    90.000000     0.000000     0.000000    -1.000000     0.000000     0.000000     0.000000
    8    -1.000000    90.000000     0.000000     0.000000    -1.000000     0.000000     0.000000     0.000000
    9     1.000000   180.000000     0.000000     0.707107     0.707107     0.000000     0.000000     0.000000
   10    -1.000000   180.000000     0.000000     0.707107     0.707107     0.000000     0.000000     0.000000
   11     1.000000    90.000000     0.000000     1.000000     0.000000     0.000000     0.000000     0.000000
   12    -1.000000    90.000000     0.000000     1.000000     0.000000     0.000000     0.000000     0.000000
   13     1.000000   180.000000     0.000000     0.000000     1.000000     0.000000     0.000000     0.000000
   14    -1.000000   180.000000     0.000000     0.000000     1.000000     0.000000     0.000000     0.000000
   15     1.000000   120.000000    -0.577350     0.577350     0.577350     0.000000     0.000000     0.000000
   16    -1.000000   120.000000    -0.577350     0.577350     0.577350     0.000000     0.000000     0.000000
   17     1.000000   120.000000    -0.577350     0.577350    -0.577350     0.000000     0.000000     0.000000
   18    -1.000000   120.000000    -0.577350     0.577350    -0.577350     0.000000     0.000000     0.000000
   19     1.000000    90.000000     0.000000     0.000000     1.000000     0.000000     0.000000     0.000000
   20    -1.000000    90.000000     0.000000     0.000000     1.000000     0.000000     0.000000     0.000000
   21     1.000000    90.000000    -1.000000     0.000000     0.000000     0.000000     0.000000     0.000000
   22    -1.000000    90.000000    -1.000000     0.000000     0.000000     0.000000     0.000000     0.000000
   23     1.000000   180.000000     0.707107     0.000000     0.707107     0.000000     0.000000     0.000000
   24    -1.000000   180.000000     0.707107     0.000000     0.707107     0.000000     0.000000     0.000000
   25     1.000000   120.000000     0.577350    -0.577350     0.577350     0.000000     0.000000     0.000000
   26    -1.000000   120.000000     0.577350    -0.577350     0.577350     0.000000     0.000000     0.000000
   27     1.000000   120.000000    -0.577350    -0.577350     0.577350     0.000000     0.000000     0.000000
   28    -1.000000   120.000000    -0.577350    -0.577350     0.577350     0.000000     0.000000     0.000000
   29     1.000000   180.000000     1.000000     0.000000     0.000000     0.000000     0.000000     0.000000
   30    -1.000000   180.000000     1.000000     0.000000     0.000000     0.000000     0.000000     0.000000
   31     1.000000    90.000000     0.000000    -1.000000     0.000000     0.000000     0.000000     0.000000
   32    -1.000000    90.000000     0.000000    -1.000000     0.000000     0.000000     0.000000     0.000000
   33     1.000000   180.000000     0.707107     0.707107     0.000000     0.000000     0.000000     0.000000
   34    -1.000000   180.000000     0.707107     0.707107     0.000000     0.000000     0.000000     0.000000
   35     1.000000    90.000000     1.000000     0.000000     0.000000     0.000000     0.000000     0.000000
   36    -1.000000    90.000000     1.000000     0.000000     0.000000     0.000000     0.000000     0.000000
   37     1.000000   120.000000     0.577350    -0.577350    -0.577350     0.000000     0.000000     0.000000
   38    -1.000000   120.000000     0.577350    -0.577350    -0.577350     0.000000     0.000000     0.000000
   39     1.000000   180.000000     0.000000     1.000000     0.000000     0.000000     0.000000     0.000000
   40    -1.000000   180.000000     0.000000     1.000000     0.000000     0.000000     0.000000     0.000000
   41     1.000000   120.000000     0.577350     0.577350    -0.577350     0.000000     0.000000     0.000000
   42    -1.000000   120.000000     0.577350     0.577350    -0.577350     0.000000     0.000000     0.000000
   43     1.000000   180.000000     0.000000    -0.707107     0.707107     0.000000     0.000000     0.000000
   44    -1.000000   180.000000     0.000000    -0.707107     0.707107     0.000000     0.000000     0.000000
   45     1.000000   180.000000     0.707107    -0.707107     0.000000     0.000000     0.000000     0.000000
   46    -1.000000   180.000000     0.707107    -0.707107     0.000000     0.000000     0.000000     0.000000
   47     1.000000   180.000000     0.707107     0.000000    -0.707107     0.000000     0.000000     0.000000
   48    -1.000000   180.000000     0.707107     0.000000    -0.707107     0.000000     0.000000     0.000000
 
 Subroutine IBZKPT returns following result:
 ===========================================
 
 Found      4 irreducible k-points:
 
 Following reciprocal coordinates:
            Coordinates               Weight
  0.000000  0.000000  0.000000      1.000000
  0.333333  0.000000  0.000000      8.000000
  0.333333  0.333333  0.000000      6.000000
 -0.333333  0.333333  0.000000     12.000000
 
 Following cartesian coordinates:
            Coordinates               Weight
  0.000000  0.000000  0.000000      1.000000
 -0.022303  0.022303  0.022303      8.000000
  0.000000  0.000000  0.044605      6.000000
  0.044605 -0.044605  0.000000     12.000000
 
 writing wavefunctions
     LOOP+:  cpu time13640.3114: real time13629.6936
    4ORBIT:  cpu time    0.0010: real time    0.0481

 total amount of memory used by VASP on root node  1612156. kBytes
========================================================================

   base      :      30000. kBytes
   nonlr-proj:      56154. kBytes
   fftplans  :      94700. kBytes
   grid      :     227360. kBytes
   one-center:       1990. kBytes
   wavefun   :    1201952. kBytes
 
  
  
 General timing and accounting informations for this job:
 ========================================================
  
                  Total CPU time used (sec):    63450.578
                            User time (sec):    63436.923
                          System time (sec):       13.654
                         Elapsed time (sec):    64213.685
  
                   Maximum memory used (kb):     4032788.
                   Average memory used (kb):           0.
  
                          Minor page faults:       298070
                          Major page faults:           11
                 Voluntary context switches:          939
