<?xml version="1.0" encoding="ISO-8859-1"?>
<modeling>
 <generator>
  <i name="program" type="string">vasp </i>
  <i name="version" type="string">5.4.1  </i>
  <i name="subversion" type="string">05Feb16 (build Oct 12 2016 17:31:35) complex                          parallel </i>
  <i name="platform" type="string">IFC91_ompi </i>
  <i name="date" type="string">2020 09 07 </i>
  <i name="time" type="string">16:21:09 </i>
 </generator>
 <incar>
  <i type="string" name="SYSTEM"> phonon of Zr bcc - omiga</i>
  <i type="string" name="PREC">a</i>
  <i type="int" name="ISPIN">     2</i>
  <i type="int" name="IBRION">     6</i>
  <i type="int" name="NFREE">     4</i>
  <i name="EDIFF">      0.00000100</i>
  <i type="int" name="NSW">     1</i>
  <v name="MAGMOM">      1.00000000      1.00000000      1.00000000      1.00000000      1.00000000      1.00000000      1.00000000      1.00000000      1.00000000      1.00000000      1.00000000      1.00000000      1.00000000      1.00000000      1.00000000      1.00000000      1.00000000      1.00000000      1.00000000      1.00000000
      1.00000000      1.00000000      1.00000000      1.00000000      1.00000000      1.00000000      1.00000000      1.00000000      1.00000000      1.00000000      1.00000000      1.00000000      1.00000000      1.00000000      1.00000000      1.00000000      1.00000000      1.00000000      1.00000000      1.00000000
      1.00000000      1.00000000      1.00000000      1.00000000      1.00000000      1.00000000      1.00000000      1.00000000      1.00000000      1.00000000      1.00000000      1.00000000      1.00000000      1.00000000      1.00000000      1.00000000      1.00000000      1.00000000      1.00000000      1.00000000
      1.00000000      1.00000000      1.00000000      1.00000000</v>
  <i type="string" name="LREAL">Auto</i>
  <i type="int" name="ISMEAR">     1</i>
  <i type="int" name="NWRITE">     0</i>
  <v type="int" name="KPOINT_BSE">    -1     0     0     0</v>
 </incar>
 <kpoints>
  <generation param="Gamma">
   <v type="int" name="divisions">       3        3        3 </v>
   <v name="usershift">      0.00000000       0.00000000       0.00000000 </v>
   <v name="genvec1">      0.33333333       0.00000000       0.00000000 </v>
   <v name="genvec2">      0.00000000       0.33333333       0.00000000 </v>
   <v name="genvec3">      0.00000000       0.00000000       0.33333333 </v>
   <v name="shift">      0.00000000       0.00000000       0.00000000 </v>
  </generation>
  <varray name="kpointlist" >
   <v>       0.00000000       0.00000000       0.00000000 </v>
   <v>       0.33333333       0.00000000       0.00000000 </v>
   <v>       0.33333333       0.33333333       0.00000000 </v>
   <v>      -0.33333333       0.33333333       0.00000000 </v>
  </varray>
  <varray name="weights" >
   <v>       0.03703704 </v>
   <v>       0.29629630 </v>
   <v>       0.22222222 </v>
   <v>       0.44444444 </v>
  </varray>
 </kpoints>
 <parameters>
  <separator name="general" >
   <i type="string" name="SYSTEM">phonon of Zr bcc - omiga</i>
   <i type="logical" name="LCOMPAT"> F  </i>
  </separator>
  <separator name="electronic" >
   <i type="string" name="PREC">a</i>
   <i name="ENMAX">    367.94500000</i>
   <i name="ENAUG">    703.44300000</i>
   <i name="EDIFF">      0.00000100</i>
   <i type="int" name="IALGO">    38</i>
   <i type="int" name="IWAVPR">    11</i>
   <i type="int" name="NBANDS">   646</i>
   <i name="NELECT">   1024.00000000</i>
   <i type="int" name="TURBO">     0</i>
   <i type="int" name="IRESTART">     0</i>
   <i type="int" name="NREBOOT">     0</i>
   <i type="int" name="NMIN">     0</i>
   <i name="EREF">      0.00000000</i>
   <separator name="electronic smearing" >
    <i type="int" name="ISMEAR">     1</i>
    <i name="SIGMA">      0.20000000</i>
    <i name="KSPACING">      0.50000000</i>
    <i type="logical" name="KGAMMA"> T  </i>
   </separator>
   <separator name="electronic projectors" >
    <i type="logical" name="LREAL"> T  </i>
    <v name="ROPT">     -0.00025000</v>
    <i type="int" name="LMAXPAW">  -100</i>
    <i type="int" name="LMAXMIX">     2</i>
    <i type="logical" name="NLSPLINE"> F  </i>
   </separator>
   <separator name="electronic startup" >
    <i type="int" name="ISTART">     0</i>
    <i type="int" name="ICHARG">     2</i>
    <i type="int" name="INIWAV">     1</i>
   </separator>
   <separator name="electronic spin" >
    <i type="int" name="ISPIN">     2</i>
    <i type="logical" name="LNONCOLLINEAR"> F  </i>
    <v name="MAGMOM">      1.00000000      1.00000000      1.00000000      1.00000000      1.00000000      1.00000000      1.00000000      1.00000000      1.00000000      1.00000000      1.00000000      1.00000000      1.00000000      1.00000000      1.00000000      1.00000000      1.00000000      1.00000000      1.00000000      1.00000000
      1.00000000      1.00000000      1.00000000      1.00000000      1.00000000      1.00000000      1.00000000      1.00000000      1.00000000      1.00000000      1.00000000      1.00000000      1.00000000      1.00000000      1.00000000      1.00000000      1.00000000      1.00000000      1.00000000      1.00000000
      1.00000000      1.00000000      1.00000000      1.00000000      1.00000000      1.00000000      1.00000000      1.00000000      1.00000000      1.00000000      1.00000000      1.00000000      1.00000000      1.00000000      1.00000000      1.00000000      1.00000000      1.00000000      1.00000000      1.00000000
      1.00000000      1.00000000      1.00000000      1.00000000</v>
    <i name="NUPDOWN">     -1.00000000</i>
    <i type="logical" name="LSORBIT"> F  </i>
    <v name="SAXIS">      0.00000000      0.00000000      1.00000000</v>
    <i type="logical" name="LSPIRAL"> F  </i>
    <v name="QSPIRAL">      0.00000000      0.00000000      0.00000000</v>
    <i type="logical" name="LZEROZ"> F  </i>
   </separator>
   <separator name="electronic exchange-correlation" >
    <i type="logical" name="LASPH"> F  </i>
    <i type="logical" name="LMETAGGA"> F  </i>
   </separator>
   <separator name="electronic convergence" >
    <i type="int" name="NELM">    60</i>
    <i type="int" name="NELMDL">    -5</i>
    <i type="int" name="NELMIN">     2</i>
    <i name="ENINI">    367.94500000</i>
    <separator name="electronic convergence detail" >
     <i type="logical" name="LDIAG"> T  </i>
     <i type="logical" name="LSUBROT"> F  </i>
     <i name="WEIMIN">      0.00100000</i>
     <i name="EBREAK">      0.00000000</i>
     <i name="DEPER">      0.30000000</i>
     <i type="int" name="NRMM">     4</i>
     <i name="TIME">      0.40000000</i>
    </separator>
   </separator>
   <separator name="electronic mixer" >
    <i name="AMIX">      0.40000000</i>
    <i name="BMIX">      1.00000000</i>
    <i name="AMIN">      0.10000000</i>
    <i name="AMIX_MAG">      1.60000000</i>
    <i name="BMIX_MAG">      1.00000000</i>
    <separator name="electronic mixer details" >
     <i type="int" name="IMIX">     4</i>
     <i type="logical" name="MIXFIRST"> F  </i>
     <i type="int" name="MAXMIX">   -45</i>
     <i name="WC">    100.00000000</i>
     <i type="int" name="INIMIX">     1</i>
     <i type="int" name="MIXPRE">     1</i>
     <i type="int" name="MREMOVE">     5</i>
    </separator>
   </separator>
   <separator name="electronic dipolcorrection" >
    <i type="logical" name="LDIPOL"> F  </i>
    <i type="logical" name="LMONO"> F  </i>
    <i type="int" name="IDIPOL">     0</i>
    <i name="EPSILON">      1.00000000</i>
    <v name="DIPOL">   -100.00000000   -100.00000000   -100.00000000</v>
    <i name="EFIELD">      0.00000000</i>
   </separator>
  </separator>
  <separator name="grids" >
   <i type="int" name="NGX">    70</i>
   <i type="int" name="NGY">    70</i>
   <i type="int" name="NGZ">    70</i>
   <i type="int" name="NGXF">   140</i>
   <i type="int" name="NGYF">   140</i>
   <i type="int" name="NGZF">   140</i>
   <i type="logical" name="ADDGRID"> F  </i>
  </separator>
  <separator name="ionic" >
   <i type="int" name="NSW">   805</i>
   <i type="int" name="IBRION">     6</i>
   <i type="int" name="ISIF">     2</i>
   <i name="PSTRESS">      0.00000000</i>
   <i name="EDIFFG">      0.00001000</i>
   <i type="int" name="NFREE">     4</i>
   <i name="POTIM">      0.50000000</i>
   <i name="SMASS">     -3.00000000</i>
   <i name="SCALEE">      1.00000000</i>
  </separator>
  <separator name="ionic md" >
   <i name="TEBEG">      0.00010000</i>
   <i name="TEEND">      0.00010000</i>
   <i type="int" name="NBLOCK">     1</i>
   <i type="int" name="KBLOCK">     1</i>
   <i type="int" name="NPACO">   256</i>
   <i name="APACO">     16.00000000</i>
  </separator>
  <separator name="symmetry" >
   <i type="int" name="ISYM">     2</i>
   <i name="SYMPREC">      0.00001000</i>
  </separator>
  <separator name="dos" >
   <i type="logical" name="LORBIT"> F  </i>
   <v name="RWIGS">     -1.00000000</v>
   <i type="int" name="NEDOS">   301</i>
   <i name="EMIN">     10.00000000</i>
   <i name="EMAX">    -10.00000000</i>
   <i name="EFERMI">      0.00000000</i>
  </separator>
  <separator name="writing" >
   <i type="int" name="NWRITE">     0</i>
   <i type="logical" name="LWAVE"> T  </i>
   <i type="logical" name="LCHARG"> T  </i>
   <i type="logical" name="LPARD"> F  </i>
   <i type="logical" name="LVTOT"> F  </i>
   <i type="logical" name="LVHAR"> F  </i>
   <i type="logical" name="LELF"> F  </i>
   <i type="logical" name="LOPTICS"> F  </i>
   <v name="STM">      0.00000000      0.00000000      0.00000000      0.00000000      0.00000000      0.00000000      0.00000000</v>
  </separator>
  <separator name="performance" >
   <i type="int" name="NPAR">     1</i>
   <i type="int" name="NSIM">     4</i>
   <i type="int" name="NBLK">    -1</i>
   <i type="logical" name="LPLANE"> T  </i>
   <i type="logical" name="LSCALAPACK"> T  </i>
   <i type="logical" name="LSCAAWARE"> F  </i>
   <i type="logical" name="LSCALU"> F  </i>
   <i type="logical" name="LASYNC"> F  </i>
   <i type="logical" name="LORBITALREAL"> F  </i>
  </separator>
  <separator name="miscellaneous" >
   <i type="int" name="IDIOT">     3</i>
   <i type="logical" name="LMUSIC"> F  </i>
   <v name="POMASS">     58.69000000</v>
   <v name="DARWINR">      0.00000000</v>
   <v name="DARWINV">      1.00000000</v>
   <i type="logical" name="LCORR"> T  </i>
  </separator>
  <i type="logical" name="GGA_COMPAT"> T  </i>
  <i type="logical" name="LBERRY"> F  </i>
  <i type="int" name="ICORELEVEL">     0</i>
  <i type="logical" name="LDAU"> F  </i>
  <i type="int" name="I_CONSTRAINED_M">     0</i>
  <separator name="electronic exchange-correlation" >
   <i type="string" name="GGA">--</i>
   <i type="int" name="VOSKOWN">     0</i>
   <i type="logical" name="LHFCALC"> F  </i>
   <i type="string" name="PRECFOCK"></i>
   <i type="logical" name="LSYMGRAD"> F  </i>
   <i type="logical" name="LHFONE"> F  </i>
   <i type="logical" name="LRHFCALC"> F  </i>
   <i type="logical" name="LTHOMAS"> F  </i>
   <i type="logical" name="LMODELHF"> F  </i>
   <i name="ENCUT4O">     -1.00000000</i>
   <i type="int" name="EXXOEP">     0</i>
   <i type="int" name="FOURORBIT">     0</i>
   <i name="AEXX">      0.00000000</i>
   <i name="HFALPHA">      0.00000000</i>
   <i name="MCALPHA">      0.00000000</i>
   <i name="ALDAX">      1.00000000</i>
   <i name="AGGAX">      1.00000000</i>
   <i name="ALDAC">      1.00000000</i>
   <i name="AGGAC">      1.00000000</i>
   <i type="int" name="NKREDX">     1</i>
   <i type="int" name="NKREDY">     1</i>
   <i type="int" name="NKREDZ">     1</i>
   <i type="logical" name="SHIFTRED"> F  </i>
   <i type="logical" name="ODDONLY"> F  </i>
   <i type="logical" name="EVENONLY"> F  </i>
   <i type="int" name="LMAXFOCK">     0</i>
   <i type="int" name="NMAXFOCKAE">     0</i>
   <i type="logical" name="LFOCKAEDFT"> F  </i>
   <i name="HFSCREEN">      0.00000000</i>
   <i name="HFSCREENC">      0.00000000</i>
   <i type="int" name="NBANDSGWLOW">     0</i>
  </separator>
  <separator name="vdW DFT" >
   <i type="logical" name="LUSE_VDW"> F  </i>
   <i name="Zab_VDW">     -0.84910000</i>
   <i name="PARAM1">      0.12340000</i>
   <i name="PARAM2">      1.00000000</i>
   <i name="PARAM3">      0.00000000</i>
  </separator>
  <separator name="model GW" >
   <i type="int" name="MODEL_GW">     0</i>
   <i name="MODEL_EPS0">      7.82503374</i>
   <i name="MODEL_ALPHA">      1.00000000</i>
  </separator>
  <separator name="linear response parameters" >
   <i type="logical" name="LEPSILON"> F  </i>
   <i type="logical" name="LRPA"> F  </i>
   <i type="logical" name="LNABLA"> F  </i>
   <i type="logical" name="LVEL"> F  </i>
   <i type="int" name="KINTER">     0</i>
   <i name="CSHIFT">      0.10000000</i>
   <i name="OMEGAMAX">     -1.00000000</i>
   <i name="DEG_THRESHOLD">      0.00200000</i>
  </separator>
  <separator name="orbital magnetization" >
   <i type="logical" name="NUCIND"> F  </i>
   <v name="MAGPOS">      0.00000000      0.00000000      0.00000000</v>
   <i type="logical" name="LNICSALL"> T  </i>
   <i type="logical" name="ORBITALMAG"> F  </i>
   <i type="logical" name="LMAGBLOCH"> F  </i>
   <i type="logical" name="LCHIMAG"> F  </i>
   <i type="logical" name="LGAUGE"> T  </i>
   <i type="int" name="MAGATOM">     0</i>
   <v name="MAGDIPOL">      0.00000000      0.00000000      0.00000000</v>
   <v name="AVECCONST">      0.00000000      0.00000000      0.00000000</v>
  </separator>
  <separator name="response functions" >
   <i type="logical" name="LADDER"> F  </i>
   <i type="logical" name="LFXC"> F  </i>
   <i type="logical" name="LHARTREE"> T  </i>
   <i type="int" name="IBSE">     0</i>
   <v type="int" name="KPOINT">    -1     0     0     0</v>
   <i type="logical" name="LTCTE"> F  </i>
   <i type="logical" name="LTETE"> F  </i>
   <i type="logical" name="LTRIPLET"> F  </i>
   <i type="logical" name="LFXCEPS"> F  </i>
   <i type="logical" name="LFXHEG"> F  </i>
   <i type="int" name="NATURALO">     0</i>
   <i type="logical" name="L2ORDER"> F  </i>
   <i type="logical" name="LUSEW"> F  </i>
   <i name="ENCUTGW">     -2.00000000</i>
   <i name="ENCUTGWSOFT">     -2.00000000</i>
   <i name="ENCUTLF">     -1.00000000</i>
   <i type="int" name="LMAXMP2">    -1</i>
   <i name="SCISSOR">      0.00000000</i>
   <i type="int" name="NOMEGA">     0</i>
   <i type="int" name="NOMEGAR">     0</i>
   <i type="int" name="NBANDSGW">    -1</i>
   <i type="int" name="NBANDSO">    -1</i>
   <i type="int" name="NBANDSV">    -1</i>
   <i type="int" name="NELM">     1</i>
   <i type="int" name="NELMHF">     1</i>
   <i type="int" name="DIM">     3</i>
   <i type="int" name="ANTIRES">     0</i>
   <i name="OMEGAMAX">    -30.00000000</i>
   <i name="OMEGAMIN">    -30.00000000</i>
   <i name="OMEGATL">   -200.00000000</i>
   <i type="int" name="OMEGAGRID">     0</i>
   <i name="CSHIFT">     -0.10000000</i>
   <i type="logical" name="SELFENERGY"> F  </i>
   <i type="logical" name="LSPECTRAL"> F  </i>
   <i type="logical" name="LSPECTRALGW"> F  </i>
   <i type="logical" name="LSINGLES"> F  </i>
   <i type="logical" name="LFERMIGW"> F  </i>
   <i type="logical" name="ODDONLYGW"> F  </i>
   <i type="logical" name="EVENONLYGW"> F  </i>
   <i type="int" name="NKREDLFX">     1</i>
   <i type="int" name="NKREDLFY">     1</i>
   <i type="int" name="NKREDLFZ">     1</i>
   <i type="int" name="MAXMEM">  1800</i>
   <i type="int" name="TELESCOPE">     0</i>
   <i type="int" name="TAUPAR">     1</i>
   <i type="int" name="OMEGAPAR">    -1</i>
   <i name="LAMBDA">      1.00000000</i>
  </separator>
  <separator name="External order field" >
   <i name="OFIELD_KAPPA">      0.00000000</i>
   <v name="OFIELD_K">      0.00000000      0.00000000      0.00000000</v>
   <i name="OFIELD_Q6_NEAR">      0.00000000</i>
   <i name="OFIELD_Q6_FAR">      0.00000000</i>
   <i name="OFIELD_A">      0.00000000</i>
  </separator>
 </parameters>
 <atominfo>
  <atoms>      64 </atoms>
  <types>       1 </types>
  <array name="atoms" >
   <dimension dim="1">ion</dimension>
   <field type="string">element</field>
   <field type="int">atomtype</field>
   <set>
    <rc><c>Ni</c><c>   1</c></rc>
    <rc><c>Ni</c><c>   1</c></rc>
    <rc><c>Ni</c><c>   1</c></rc>
    <rc><c>Ni</c><c>   1</c></rc>
    <rc><c>Ni</c><c>   1</c></rc>
    <rc><c>Ni</c><c>   1</c></rc>
    <rc><c>Ni</c><c>   1</c></rc>
    <rc><c>Ni</c><c>   1</c></rc>
    <rc><c>Ni</c><c>   1</c></rc>
    <rc><c>Ni</c><c>   1</c></rc>
    <rc><c>Ni</c><c>   1</c></rc>
    <rc><c>Ni</c><c>   1</c></rc>
    <rc><c>Ni</c><c>   1</c></rc>
    <rc><c>Ni</c><c>   1</c></rc>
    <rc><c>Ni</c><c>   1</c></rc>
    <rc><c>Ni</c><c>   1</c></rc>
    <rc><c>Ni</c><c>   1</c></rc>
    <rc><c>Ni</c><c>   1</c></rc>
    <rc><c>Ni</c><c>   1</c></rc>
    <rc><c>Ni</c><c>   1</c></rc>
    <rc><c>Ni</c><c>   1</c></rc>
    <rc><c>Ni</c><c>   1</c></rc>
    <rc><c>Ni</c><c>   1</c></rc>
    <rc><c>Ni</c><c>   1</c></rc>
    <rc><c>Ni</c><c>   1</c></rc>
    <rc><c>Ni</c><c>   1</c></rc>
    <rc><c>Ni</c><c>   1</c></rc>
    <rc><c>Ni</c><c>   1</c></rc>
    <rc><c>Ni</c><c>   1</c></rc>
    <rc><c>Ni</c><c>   1</c></rc>
    <rc><c>Ni</c><c>   1</c></rc>
    <rc><c>Ni</c><c>   1</c></rc>
    <rc><c>Ni</c><c>   1</c></rc>
    <rc><c>Ni</c><c>   1</c></rc>
    <rc><c>Ni</c><c>   1</c></rc>
    <rc><c>Ni</c><c>   1</c></rc>
    <rc><c>Ni</c><c>   1</c></rc>
    <rc><c>Ni</c><c>   1</c></rc>
    <rc><c>Ni</c><c>   1</c></rc>
    <rc><c>Ni</c><c>   1</c></rc>
    <rc><c>Ni</c><c>   1</c></rc>
    <rc><c>Ni</c><c>   1</c></rc>
    <rc><c>Ni</c><c>   1</c></rc>
    <rc><c>Ni</c><c>   1</c></rc>
    <rc><c>Ni</c><c>   1</c></rc>
    <rc><c>Ni</c><c>   1</c></rc>
    <rc><c>Ni</c><c>   1</c></rc>
    <rc><c>Ni</c><c>   1</c></rc>
    <rc><c>Ni</c><c>   1</c></rc>
    <rc><c>Ni</c><c>   1</c></rc>
    <rc><c>Ni</c><c>   1</c></rc>
    <rc><c>Ni</c><c>   1</c></rc>
    <rc><c>Ni</c><c>   1</c></rc>
    <rc><c>Ni</c><c>   1</c></rc>
    <rc><c>Ni</c><c>   1</c></rc>
    <rc><c>Ni</c><c>   1</c></rc>
    <rc><c>Ni</c><c>   1</c></rc>
    <rc><c>Ni</c><c>   1</c></rc>
    <rc><c>Ni</c><c>   1</c></rc>
    <rc><c>Ni</c><c>   1</c></rc>
    <rc><c>Ni</c><c>   1</c></rc>
    <rc><c>Ni</c><c>   1</c></rc>
    <rc><c>Ni</c><c>   1</c></rc>
    <rc><c>Ni</c><c>   1</c></rc>
   </set>
  </array>
  <array name="atomtypes" >
   <dimension dim="1">type</dimension>
   <field type="int">atomspertype</field>
   <field type="string">element</field>
   <field>mass</field>
   <field>valence</field>
   <field type="string">pseudopotential</field>
   <set>
    <rc><c>  64</c><c>Ni</c><c>     58.69000000</c><c>     16.00000000</c><c> PAW_PBE Ni_pv 06Sep2000                </c></rc>
   </set>
  </array>
 </atominfo>
 <structure name="initialpos" >
  <crystal>
   <varray name="basis" >
    <v>       0.00000000       7.47300000       7.47300000 </v>
    <v>       7.47300000       0.00000000       7.47300000 </v>
    <v>       7.47300000       7.47300000       0.00000000 </v>
   </varray>
   <i name="volume">    834.67026563 </i>
   <varray name="rec_basis" >
    <v>      -0.06690753       0.06690753       0.06690753 </v>
    <v>       0.06690753      -0.06690753       0.06690753 </v>
    <v>       0.06690753       0.06690753      -0.06690753 </v>
   </varray>
  </crystal>
  <varray name="positions" >
   <v>       0.00000000       0.00000000       0.00000000 </v>
   <v>       0.00000000       0.00000000       0.25000000 </v>
   <v>       0.00000000       0.00000000       0.50000000 </v>
   <v>       0.00000000       0.00000000       0.75000000 </v>
   <v>       0.00000000       0.25000000       0.00000000 </v>
   <v>       0.00000000       0.25000000       0.25000000 </v>
   <v>       0.00000000       0.25000000       0.50000000 </v>
   <v>       0.00000000       0.25000000       0.75000000 </v>
   <v>       0.00000000       0.50000000       0.00000000 </v>
   <v>       0.00000000       0.50000000       0.25000000 </v>
   <v>       0.00000000       0.50000000       0.50000000 </v>
   <v>       0.00000000       0.50000000       0.75000000 </v>
   <v>       0.00000000       0.75000000       0.00000000 </v>
   <v>       0.00000000       0.75000000       0.25000000 </v>
   <v>       0.00000000       0.75000000       0.50000000 </v>
   <v>       0.00000000       0.75000000       0.75000000 </v>
   <v>       0.25000000       0.00000000       0.00000000 </v>
   <v>       0.25000000       0.00000000       0.25000000 </v>
   <v>       0.25000000       0.00000000       0.50000000 </v>
   <v>       0.25000000       0.00000000       0.75000000 </v>
   <v>       0.25000000       0.25000000       0.00000000 </v>
   <v>       0.25000000       0.25000000       0.25000000 </v>
   <v>       0.25000000       0.25000000       0.50000000 </v>
   <v>       0.25000000       0.25000000       0.75000000 </v>
   <v>       0.25000000       0.50000000       0.00000000 </v>
   <v>       0.25000000       0.50000000       0.25000000 </v>
   <v>       0.25000000       0.50000000       0.50000000 </v>
   <v>       0.25000000       0.50000000       0.75000000 </v>
   <v>       0.25000000       0.75000000       0.00000000 </v>
   <v>       0.25000000       0.75000000       0.25000000 </v>
   <v>       0.25000000       0.75000000       0.50000000 </v>
   <v>       0.25000000       0.75000000       0.75000000 </v>
   <v>       0.50000000       0.00000000       0.00000000 </v>
   <v>       0.50000000       0.00000000       0.25000000 </v>
   <v>       0.50000000       0.00000000       0.50000000 </v>
   <v>       0.50000000       0.00000000       0.75000000 </v>
   <v>       0.50000000       0.25000000       0.00000000 </v>
   <v>       0.50000000       0.25000000       0.25000000 </v>
   <v>       0.50000000       0.25000000       0.50000000 </v>
   <v>       0.50000000       0.25000000       0.75000000 </v>
   <v>       0.50000000       0.50000000       0.00000000 </v>
   <v>       0.50000000       0.50000000       0.25000000 </v>
   <v>       0.50000000       0.50000000       0.50000000 </v>
   <v>       0.50000000       0.50000000       0.75000000 </v>
   <v>       0.50000000       0.75000000       0.00000000 </v>
   <v>       0.50000000       0.75000000       0.25000000 </v>
   <v>       0.50000000       0.75000000       0.50000000 </v>
   <v>       0.50000000       0.75000000       0.75000000 </v>
   <v>       0.75000000       0.00000000       0.00000000 </v>
   <v>       0.75000000       0.00000000       0.25000000 </v>
   <v>       0.75000000       0.00000000       0.50000000 </v>
   <v>       0.75000000       0.00000000       0.75000000 </v>
   <v>       0.75000000       0.25000000       0.00000000 </v>
   <v>       0.75000000       0.25000000       0.25000000 </v>
   <v>       0.75000000       0.25000000       0.50000000 </v>
   <v>       0.75000000       0.25000000       0.75000000 </v>
   <v>       0.75000000       0.50000000       0.00000000 </v>
   <v>       0.75000000       0.50000000       0.25000000 </v>
   <v>       0.75000000       0.50000000       0.50000000 </v>
   <v>       0.75000000       0.50000000       0.75000000 </v>
   <v>       0.75000000       0.75000000       0.00000000 </v>
   <v>       0.75000000       0.75000000       0.25000000 </v>
   <v>       0.75000000       0.75000000       0.50000000 </v>
   <v>       0.75000000       0.75000000       0.75000000 </v>
  </varray>
 </structure>
 <calculation>
  <scstep>
   <time name="dav">  541.63  541.18</time>
   <time name="total">  544.81  544.40</time>
   <energy>
    <i name="alphaZ">   8266.97428417 </i>
    <i name="ewald">-144746.26977666 </i>
    <i name="hartreedc"> -67168.00643356 </i>
    <i name="XCdc">   5681.52194873 </i>
    <i name="pawpsdc"> 172361.15642774 </i>
    <i name="pawaedc">-181272.45834873 </i>
    <i name="eentropy">      0.01698649 </i>
    <i name="bandstr">  -3844.63065746 </i>
    <i name="atom"> 224013.29143063 </i>
    <i name="e_fr_energy">  13291.59586136 </i>
    <i name="e_wo_entrp">  13291.57887487 </i>
    <i name="e_0_energy">  13291.59019919 </i>
   </energy>
  </scstep>
  <scstep>
   <time name="dav">  477.26  476.87</time>
   <time name="total">  477.28  476.88</time>
   <energy>
    <i name="e_fr_energy">    674.31331102 </i>
    <i name="e_wo_entrp">    674.30729388 </i>
    <i name="e_0_energy">    674.31130531 </i>
   </energy>
  </scstep>
  <scstep>
   <time name="dav">  490.46  490.05</time>
   <time name="total">  490.48  490.07</time>
   <energy>
    <i name="e_fr_energy">   -362.20512229 </i>
    <i name="e_wo_entrp">   -362.37815741 </i>
    <i name="e_0_energy">   -362.26280067 </i>
   </energy>
  </scstep>
  <scstep>
   <time name="dav">  502.15  501.73</time>
   <time name="total">  502.16  501.74</time>
   <energy>
    <i name="e_fr_energy">   -417.59673885 </i>
    <i name="e_wo_entrp">   -417.76418185 </i>
    <i name="e_0_energy">   -417.65255319 </i>
   </energy>
  </scstep>
  <scstep>
   <time name="dav">  496.93  496.51</time>
   <time name="total">  523.45  523.01</time>
   <energy>
    <i name="e_fr_energy">   -418.45342907 </i>
    <i name="e_wo_entrp">   -418.62093140 </i>
    <i name="e_0_energy">   -418.50926318 </i>
   </energy>
  </scstep>
  <scstep>
   <time name="dav">  492.58  492.17</time>
   <time name="total">  521.66  521.22</time>
   <energy>
    <i name="e_fr_energy">   -399.56683335 </i>
    <i name="e_wo_entrp">   -399.03484863 </i>
    <i name="e_0_energy">   -399.38950511 </i>
   </energy>
  </scstep>
  <scstep>
   <time name="dav">  491.33  490.92</time>
   <time name="total">  520.78  520.34</time>
   <energy>
    <i name="e_fr_energy">   -357.18155934 </i>
    <i name="e_wo_entrp">   -357.07209365 </i>
    <i name="e_0_energy">   -357.14507078 </i>
   </energy>
  </scstep>
  <scstep>
   <time name="dav">  491.71  491.30</time>
   <time name="total">  521.26  520.82</time>
   <energy>
    <i name="e_fr_energy">   -357.43995243 </i>
    <i name="e_wo_entrp">   -357.34813899 </i>
    <i name="e_0_energy">   -357.40934795 </i>
   </energy>
  </scstep>
  <scstep>
   <time name="dav">  500.02  499.61</time>
   <time name="total">  529.65  529.21</time>
   <energy>
    <i name="e_fr_energy">   -357.34946048 </i>
    <i name="e_wo_entrp">   -357.25136574 </i>
    <i name="e_0_energy">   -357.31676223 </i>
   </energy>
  </scstep>
  <scstep>
   <time name="dav">  511.67  511.24</time>
   <time name="total">  541.23  540.78</time>
   <energy>
    <i name="e_fr_energy">   -357.35532100 </i>
    <i name="e_wo_entrp">   -357.25825470 </i>
    <i name="e_0_energy">   -357.32296557 </i>
   </energy>
  </scstep>
  <scstep>
   <time name="dav">  494.71  494.30</time>
   <time name="total">  523.39  522.95</time>
   <energy>
    <i name="e_fr_energy">   -357.35909667 </i>
    <i name="e_wo_entrp">   -357.26303979 </i>
    <i name="e_0_energy">   -357.32707771 </i>
   </energy>
  </scstep>
  <scstep>
   <time name="dav">  505.15  504.73</time>
   <time name="total">  533.90  533.46</time>
   <energy>
    <i name="e_fr_energy">   -357.35912812 </i>
    <i name="e_wo_entrp">   -357.26161156 </i>
    <i name="e_0_energy">   -357.32662260 </i>
   </energy>
  </scstep>
  <scstep>
   <time name="dav">  503.67  503.25</time>
   <time name="total">  532.38  531.93</time>
   <energy>
    <i name="e_fr_energy">   -357.35912131 </i>
    <i name="e_wo_entrp">   -357.26142937 </i>
    <i name="e_0_energy">   -357.32655733 </i>
   </energy>
  </scstep>
  <scstep>
   <time name="dav">  387.52  387.20</time>
   <time name="total">  416.30  415.95</time>
   <energy>
    <i name="e_fr_energy">   -357.35910237 </i>
    <i name="e_wo_entrp">   -357.26147719 </i>
    <i name="e_0_energy">   -357.32656064 </i>
   </energy>
  </scstep>
  <scstep>
   <time name="dav">  349.05  348.75</time>
   <time name="total">  377.78  377.46</time>
   <energy>
    <i name="e_fr_energy">   -357.35909353 </i>
    <i name="e_wo_entrp">   -357.26153196 </i>
    <i name="e_0_energy">   -357.32657300 </i>
   </energy>
  </scstep>
  <scstep>
   <time name="dav">  302.54  302.29</time>
   <time name="total">  305.73  305.47</time>
   <energy>
    <i name="alphaZ">   8266.97428417 </i>
    <i name="ewald">-144746.26977666 </i>
    <i name="hartreedc"> -64903.56386985 </i>
    <i name="XCdc">   5598.85470091 </i>
    <i name="pawpsdc"> 170431.81602671 </i>
    <i name="pawaedc">-179450.79271030 </i>
    <i name="eentropy">     -0.09755900 </i>
    <i name="bandstr"> -19567.57162062 </i>
    <i name="atom"> 224013.29143063 </i>
    <i name="e_fr_energy">   -357.35909401 </i>
    <i name="e_wo_entrp">   -357.26153500 </i>
    <i name="e_0_energy">   -357.32657434 </i>
   </energy>
  </scstep>
  <structure>
   <crystal>
    <varray name="basis" >
     <v>       0.00000000       7.47300000       7.47300000 </v>
     <v>       7.47300000       0.00000000       7.47300000 </v>
     <v>       7.47300000       7.47300000       0.00000000 </v>
    </varray>
    <i name="volume">    834.67026563 </i>
    <varray name="rec_basis" >
     <v>      -0.06690753       0.06690753       0.06690753 </v>
     <v>       0.06690753      -0.06690753       0.06690753 </v>
     <v>       0.06690753       0.06690753      -0.06690753 </v>
    </varray>
   </crystal>
   <varray name="positions" >
    <v>       0.00000000       0.00000000       0.00000000 </v>
    <v>       0.00000000       0.00000000       0.25000000 </v>
    <v>       0.00000000       0.00000000       0.50000000 </v>
    <v>       0.00000000       0.00000000       0.75000000 </v>
    <v>       0.00000000       0.25000000       0.00000000 </v>
    <v>       0.00000000       0.25000000       0.25000000 </v>
    <v>       0.00000000       0.25000000       0.50000000 </v>
    <v>       0.00000000       0.25000000       0.75000000 </v>
    <v>       0.00000000       0.50000000       0.00000000 </v>
    <v>       0.00000000       0.50000000       0.25000000 </v>
    <v>       0.00000000       0.50000000       0.50000000 </v>
    <v>       0.00000000       0.50000000       0.75000000 </v>
    <v>       0.00000000       0.75000000       0.00000000 </v>
    <v>       0.00000000       0.75000000       0.25000000 </v>
    <v>       0.00000000       0.75000000       0.50000000 </v>
    <v>       0.00000000       0.75000000       0.75000000 </v>
    <v>       0.25000000       0.00000000       0.00000000 </v>
    <v>       0.25000000       0.00000000       0.25000000 </v>
    <v>       0.25000000       0.00000000       0.50000000 </v>
    <v>       0.25000000       0.00000000       0.75000000 </v>
    <v>       0.25000000       0.25000000       0.00000000 </v>
    <v>       0.25000000       0.25000000       0.25000000 </v>
    <v>       0.25000000       0.25000000       0.50000000 </v>
    <v>       0.25000000       0.25000000       0.75000000 </v>
    <v>       0.25000000       0.50000000       0.00000000 </v>
    <v>       0.25000000       0.50000000       0.25000000 </v>
    <v>       0.25000000       0.50000000       0.50000000 </v>
    <v>       0.25000000       0.50000000       0.75000000 </v>
    <v>       0.25000000       0.75000000       0.00000000 </v>
    <v>       0.25000000       0.75000000       0.25000000 </v>
    <v>       0.25000000       0.75000000       0.50000000 </v>
    <v>       0.25000000       0.75000000       0.75000000 </v>
    <v>       0.50000000       0.00000000       0.00000000 </v>
    <v>       0.50000000       0.00000000       0.25000000 </v>
    <v>       0.50000000       0.00000000       0.50000000 </v>
    <v>       0.50000000       0.00000000       0.75000000 </v>
    <v>       0.50000000       0.25000000       0.00000000 </v>
    <v>       0.50000000       0.25000000       0.25000000 </v>
    <v>       0.50000000       0.25000000       0.50000000 </v>
    <v>       0.50000000       0.25000000       0.75000000 </v>
    <v>       0.50000000       0.50000000       0.00000000 </v>
    <v>       0.50000000       0.50000000       0.25000000 </v>
    <v>       0.50000000       0.50000000       0.50000000 </v>
    <v>       0.50000000       0.50000000       0.75000000 </v>
    <v>       0.50000000       0.75000000       0.00000000 </v>
    <v>       0.50000000       0.75000000       0.25000000 </v>
    <v>       0.50000000       0.75000000       0.50000000 </v>
    <v>       0.50000000       0.75000000       0.75000000 </v>
    <v>       0.75000000       0.00000000       0.00000000 </v>
    <v>       0.75000000       0.00000000       0.25000000 </v>
    <v>       0.75000000       0.00000000       0.50000000 </v>
    <v>       0.75000000       0.00000000       0.75000000 </v>
    <v>       0.75000000       0.25000000       0.00000000 </v>
    <v>       0.75000000       0.25000000       0.25000000 </v>
    <v>       0.75000000       0.25000000       0.50000000 </v>
    <v>       0.75000000       0.25000000       0.75000000 </v>
    <v>       0.75000000       0.50000000       0.00000000 </v>
    <v>       0.75000000       0.50000000       0.25000000 </v>
    <v>       0.75000000       0.50000000       0.50000000 </v>
    <v>       0.75000000       0.50000000       0.75000000 </v>
    <v>       0.75000000       0.75000000       0.00000000 </v>
    <v>       0.75000000       0.75000000       0.25000000 </v>
    <v>       0.75000000       0.75000000       0.50000000 </v>
    <v>       0.75000000       0.75000000       0.75000000 </v>
   </varray>
  </structure>
  <varray name="forces" >
   <v>       0.00000000       0.00000000       0.00000000 </v>
   <v>      -0.00000000       0.00000000      -0.00000000 </v>
   <v>       0.00000000      -0.00000000      -0.00000000 </v>
   <v>       0.00000000      -0.00000000      -0.00000000 </v>
   <v>       0.00000000       0.00000000       0.00000000 </v>
   <v>       0.00000000       0.00000000      -0.00000000 </v>
   <v>      -0.00000000      -0.00000000      -0.00000000 </v>
   <v>       0.00000000      -0.00000000       0.00000000 </v>
   <v>       0.00000000      -0.00000000      -0.00000000 </v>
   <v>      -0.00000000       0.00000000      -0.00000000 </v>
   <v>      -0.00000000      -0.00000000       0.00000000 </v>
   <v>      -0.00000000      -0.00000000      -0.00000000 </v>
   <v>       0.00000000       0.00000000       0.00000000 </v>
   <v>      -0.00000000       0.00000000      -0.00000000 </v>
   <v>      -0.00000000      -0.00000000      -0.00000000 </v>
   <v>       0.00000000      -0.00000000      -0.00000000 </v>
   <v>       0.00000000       0.00000000       0.00000000 </v>
   <v>      -0.00000000      -0.00000000       0.00000000 </v>
   <v>      -0.00000000      -0.00000000      -0.00000000 </v>
   <v>       0.00000000       0.00000000       0.00000000 </v>
   <v>       0.00000000       0.00000000       0.00000000 </v>
   <v>       0.00000000       0.00000000       0.00000000 </v>
   <v>      -0.00000000      -0.00000000       0.00000000 </v>
   <v>      -0.00000000       0.00000000      -0.00000000 </v>
   <v>       0.00000000      -0.00000000      -0.00000000 </v>
   <v>       0.00000000      -0.00000000      -0.00000000 </v>
   <v>      -0.00000000      -0.00000000      -0.00000000 </v>
   <v>      -0.00000000      -0.00000000      -0.00000000 </v>
   <v>      -0.00000000       0.00000000       0.00000000 </v>
   <v>       0.00000000       0.00000000      -0.00000000 </v>
   <v>      -0.00000000      -0.00000000      -0.00000000 </v>
   <v>      -0.00000000      -0.00000000      -0.00000000 </v>
   <v>       0.00000000       0.00000000       0.00000000 </v>
   <v>      -0.00000000       0.00000000       0.00000000 </v>
   <v>      -0.00000000      -0.00000000      -0.00000000 </v>
   <v>      -0.00000000       0.00000000       0.00000000 </v>
   <v>       0.00000000       0.00000000       0.00000000 </v>
   <v>       0.00000000       0.00000000       0.00000000 </v>
   <v>      -0.00000000      -0.00000000      -0.00000000 </v>
   <v>      -0.00000000       0.00000000       0.00000000 </v>
   <v>       0.00000000       0.00000000       0.00000000 </v>
   <v>      -0.00000000       0.00000000       0.00000000 </v>
   <v>      -0.00000000       0.00000000      -0.00000000 </v>
   <v>      -0.00000000      -0.00000000      -0.00000000 </v>
   <v>      -0.00000000       0.00000000       0.00000000 </v>
   <v>       0.00000000      -0.00000000      -0.00000000 </v>
   <v>      -0.00000000      -0.00000000      -0.00000000 </v>
   <v>      -0.00000000      -0.00000000      -0.00000000 </v>
   <v>      -0.00000000       0.00000000       0.00000000 </v>
   <v>       0.00000000      -0.00000000       0.00000000 </v>
   <v>      -0.00000000      -0.00000000      -0.00000000 </v>
   <v>      -0.00000000       0.00000000      -0.00000000 </v>
   <v>       0.00000000       0.00000000       0.00000000 </v>
   <v>       0.00000000       0.00000000      -0.00000000 </v>
   <v>      -0.00000000      -0.00000000      -0.00000000 </v>
   <v>      -0.00000000       0.00000000       0.00000000 </v>
   <v>       0.00000000      -0.00000000      -0.00000000 </v>
   <v>       0.00000000      -0.00000000      -0.00000000 </v>
   <v>      -0.00000000      -0.00000000       0.00000000 </v>
   <v>      -0.00000000      -0.00000000      -0.00000000 </v>
   <v>      -0.00000000       0.00000000       0.00000000 </v>
   <v>      -0.00000000      -0.00000000      -0.00000000 </v>
   <v>      -0.00000000      -0.00000000      -0.00000000 </v>
   <v>       0.00000000      -0.00000000      -0.00000000 </v>
  </varray>
  <varray name="stress" >
   <v>    -350.91375910      -0.00000000      -0.00000000 </v>
   <v>      -0.00000000    -350.91375910      -0.00000000 </v>
   <v>      -0.00000000      -0.00000000    -350.91375910 </v>
  </varray>
  <energy>
   <i name="e_fr_energy">   -357.35909401 </i>
   <i name="e_wo_entrp">   -357.32657434 </i>
   <i name="e_0_energy">     -0.09755900 </i>
  </energy>
  <kpoints>
   <generation param="Gamma">
    <v type="int" name="divisions">       3        3        3 </v>
    <v name="usershift">      0.00000000       0.00000000       0.00000000 </v>
    <v name="genvec1">      0.33333333       0.00000000       0.00000000 </v>
    <v name="genvec2">      0.00000000       0.33333333       0.00000000 </v>
    <v name="genvec3">      0.00000000       0.00000000       0.33333333 </v>
    <v name="shift">      0.00000000       0.00000000       0.00000000 </v>
   </generation>
   <varray name="kpointlist" >
    <v>       0.00000000       0.00000000       0.00000000 </v>
    <v>       0.33333333       0.00000000       0.00000000 </v>
    <v>       0.33333333       0.33333333       0.00000000 </v>
    <v>      -0.33333333       0.33333333       0.00000000 </v>
    <v>       0.00000000       0.33333333       0.33333333 </v>
    <v>      -0.33333333       0.33333333       0.33333333 </v>
   </varray>
   <varray name="weights" >
    <v>       0.03703704 </v>
    <v>       0.29629630 </v>
    <v>       0.14814815 </v>
    <v>       0.29629630 </v>
    <v>       0.07407407 </v>
    <v>       0.14814815 </v>
   </varray>
  </kpoints>
  <time name="totalsc"> 8539.12 8533.82</time>
 </calculation>
 <calculation>
  <scstep>
   <time name="dav">  895.15  894.41</time>
   <time name="total">  936.72  935.99</time>
   <energy>
    <i name="alphaZ">   8266.97428417 </i>
    <i name="ewald">-144745.74533523 </i>
    <i name="hartreedc"> -64904.10081307 </i>
    <i name="XCdc">   5598.85796988 </i>
    <i name="pawpsdc"> 170431.66392112 </i>
    <i name="pawaedc">-179450.64790792 </i>
    <i name="eentropy">     -0.09750442 </i>
    <i name="bandstr"> -19567.21770351 </i>
    <i name="atom"> 224013.29143063 </i>
    <i name="e_fr_energy">   -357.02165836 </i>
    <i name="e_wo_entrp">   -356.92415394 </i>
    <i name="e_0_energy">   -356.98915689 </i>
   </energy>
  </scstep>
  <scstep>
   <time name="dav">  733.41  732.80</time>
   <time name="total">  773.80  773.15</time>
   <energy>
    <i name="e_fr_energy">   -357.38237059 </i>
    <i name="e_wo_entrp">   -357.28563096 </i>
    <i name="e_0_energy">   -357.35012404 </i>
   </energy>
  </scstep>
  <scstep>
   <time name="dav">  856.89  856.17</time>
   <time name="total">  897.48  896.73</time>
   <energy>
    <i name="e_fr_energy">   -357.36174942 </i>
    <i name="e_wo_entrp">   -357.26396914 </i>
    <i name="e_0_energy">   -357.32915600 </i>
   </energy>
  </scstep>
  <scstep>
   <time name="dav">  841.14  840.44</time>
   <time name="total">  881.65  880.91</time>
   <energy>
    <i name="e_fr_energy">   -357.37271757 </i>
    <i name="e_wo_entrp">   -357.27541045 </i>
    <i name="e_0_energy">   -357.34028186 </i>
   </energy>
  </scstep>
  <scstep>
   <time name="dav">  762.96  762.32</time>
   <time name="total">  803.50  802.84</time>
   <energy>
    <i name="e_fr_energy">   -357.35823069 </i>
    <i name="e_wo_entrp">   -357.26063440 </i>
    <i name="e_0_energy">   -357.32569859 </i>
   </energy>
  </scstep>
  <scstep>
   <time name="dav">  870.57  869.85</time>
   <time name="total">  911.10  910.34</time>
   <energy>
    <i name="e_fr_energy">   -357.35793229 </i>
    <i name="e_wo_entrp">   -357.26034359 </i>
    <i name="e_0_energy">   -357.32540272 </i>
   </energy>
  </scstep>
  <scstep>
   <time name="dav">  775.15  774.51</time>
   <time name="total">  816.72  816.04</time>
   <energy>
    <i name="e_fr_energy">   -357.35784607 </i>
    <i name="e_wo_entrp">   -357.26025707 </i>
    <i name="e_0_energy">   -357.32531641 </i>
   </energy>
  </scstep>
  <scstep>
   <time name="dav">  772.32  771.68</time>
   <time name="total">  813.93  813.25</time>
   <energy>
    <i name="e_fr_energy">   -357.35766391 </i>
    <i name="e_wo_entrp">   -357.26008181 </i>
    <i name="e_0_energy">   -357.32513655 </i>
   </energy>
  </scstep>
  <scstep>
   <time name="dav">  779.94  779.29</time>
   <time name="total">  821.69  821.01</time>
   <energy>
    <i name="e_fr_energy">   -357.35775726 </i>
    <i name="e_wo_entrp">   -357.26017908 </i>
    <i name="e_0_energy">   -357.32523120 </i>
   </energy>
  </scstep>
  <scstep>
   <time name="dav">  844.02  843.32</time>
   <time name="total">  885.63  884.89</time>
   <energy>
    <i name="e_fr_energy">   -357.35739750 </i>
    <i name="e_wo_entrp">   -357.25985112 </i>
    <i name="e_0_energy">   -357.32488204 </i>
   </energy>
  </scstep>
  <scstep>
   <time name="dav">  908.74  907.98</time>
   <time name="total">  950.59  949.79</time>
   <energy>
    <i name="e_fr_energy">   -357.35730856 </i>
    <i name="e_wo_entrp">   -357.25975624 </i>
    <i name="e_0_energy">   -357.32479112 </i>
   </energy>
  </scstep>
  <scstep>
   <time name="dav">  921.83  921.07</time>
   <time name="total">  963.42  962.62</time>
   <energy>
    <i name="e_fr_energy">   -357.35733235 </i>
    <i name="e_wo_entrp">   -357.25977512 </i>
    <i name="e_0_energy">   -357.32481327 </i>
   </energy>
  </scstep>
  <scstep>
   <time name="dav">  802.46  801.79</time>
   <time name="total">  844.08  843.38</time>
   <energy>
    <i name="e_fr_energy">   -357.35730179 </i>
    <i name="e_wo_entrp">   -357.25973891 </i>
    <i name="e_0_energy">   -357.32478083 </i>
   </energy>
  </scstep>
  <scstep>
   <time name="dav">  869.52  868.80</time>
   <time name="total">  911.35  910.59</time>
   <energy>
    <i name="e_fr_energy">   -357.35731054 </i>
    <i name="e_wo_entrp">   -357.25975172 </i>
    <i name="e_0_energy">   -357.32479093 </i>
   </energy>
  </scstep>
  <scstep>
   <time name="dav">  754.08  753.45</time>
   <time name="total">  795.84  795.18</time>
   <energy>
    <i name="e_fr_energy">   -357.35730229 </i>
    <i name="e_wo_entrp">   -357.25974200 </i>
    <i name="e_0_energy">   -357.32478219 </i>
   </energy>
  </scstep>
  <scstep>
   <time name="dav">  475.26 1287.57</time>
   <time name="total">  478.46 1290.77</time>
   <energy>
    <i name="alphaZ">   8266.97428417 </i>
    <i name="ewald">-144745.74533523 </i>
    <i name="hartreedc"> -64904.06360298 </i>
    <i name="XCdc">   5598.85573406 </i>
    <i name="pawpsdc"> 170431.61024414 </i>
    <i name="pawaedc">-179450.59779065 </i>
    <i name="eentropy">     -0.09755917 </i>
    <i name="bandstr"> -19567.58470723 </i>
    <i name="atom"> 224013.29143063 </i>
    <i name="e_fr_energy">   -357.35730226 </i>
    <i name="e_wo_entrp">   -357.25974309 </i>
    <i name="e_0_energy">   -357.32478254 </i>
   </energy>
  </scstep>
  <structure>
   <crystal>
    <varray name="basis" >
     <v>       0.00000000       7.47300000       7.47300000 </v>
     <v>       7.47300000       0.00000000       7.47300000 </v>
     <v>       7.47300000       7.47300000       0.00000000 </v>
    </varray>
    <i name="volume">    834.67026563 </i>
    <varray name="rec_basis" >
     <v>      -0.06690753       0.06690753       0.06690753 </v>
     <v>       0.06690753      -0.06690753       0.06690753 </v>
     <v>       0.06690753       0.06690753      -0.06690753 </v>
    </varray>
   </crystal>
   <varray name="positions" >
    <v>      -0.00200723       0.00200723       0.00200723 </v>
    <v>       0.00000000       0.00000000       0.25000000 </v>
    <v>       0.00000000       0.00000000       0.50000000 </v>
    <v>       0.00000000       0.00000000       0.75000000 </v>
    <v>       0.00000000       0.25000000       0.00000000 </v>
    <v>       0.00000000       0.25000000       0.25000000 </v>
    <v>       0.00000000       0.25000000       0.50000000 </v>
    <v>       0.00000000       0.25000000       0.75000000 </v>
    <v>       0.00000000       0.50000000       0.00000000 </v>
    <v>       0.00000000       0.50000000       0.25000000 </v>
    <v>       0.00000000       0.50000000       0.50000000 </v>
    <v>       0.00000000       0.50000000       0.75000000 </v>
    <v>       0.00000000       0.75000000       0.00000000 </v>
    <v>       0.00000000       0.75000000       0.25000000 </v>
    <v>       0.00000000       0.75000000       0.50000000 </v>
    <v>       0.00000000       0.75000000       0.75000000 </v>
    <v>       0.25000000       0.00000000       0.00000000 </v>
    <v>       0.25000000       0.00000000       0.25000000 </v>
    <v>       0.25000000       0.00000000       0.50000000 </v>
    <v>       0.25000000       0.00000000       0.75000000 </v>
    <v>       0.25000000       0.25000000       0.00000000 </v>
    <v>       0.25000000       0.25000000       0.25000000 </v>
    <v>       0.25000000       0.25000000       0.50000000 </v>
    <v>       0.25000000       0.25000000       0.75000000 </v>
    <v>       0.25000000       0.50000000       0.00000000 </v>
    <v>       0.25000000       0.50000000       0.25000000 </v>
    <v>       0.25000000       0.50000000       0.50000000 </v>
    <v>       0.25000000       0.50000000       0.75000000 </v>
    <v>       0.25000000       0.75000000       0.00000000 </v>
    <v>       0.25000000       0.75000000       0.25000000 </v>
    <v>       0.25000000       0.75000000       0.50000000 </v>
    <v>       0.25000000       0.75000000       0.75000000 </v>
    <v>       0.50000000       0.00000000       0.00000000 </v>
    <v>       0.50000000       0.00000000       0.25000000 </v>
    <v>       0.50000000       0.00000000       0.50000000 </v>
    <v>       0.50000000       0.00000000       0.75000000 </v>
    <v>       0.50000000       0.25000000       0.00000000 </v>
    <v>       0.50000000       0.25000000       0.25000000 </v>
    <v>       0.50000000       0.25000000       0.50000000 </v>
    <v>       0.50000000       0.25000000       0.75000000 </v>
    <v>       0.50000000       0.50000000       0.00000000 </v>
    <v>       0.50000000       0.50000000       0.25000000 </v>
    <v>       0.50000000       0.50000000       0.50000000 </v>
    <v>       0.50000000       0.50000000       0.75000000 </v>
    <v>       0.50000000       0.75000000       0.00000000 </v>
    <v>       0.50000000       0.75000000       0.25000000 </v>
    <v>       0.50000000       0.75000000       0.50000000 </v>
    <v>       0.50000000       0.75000000       0.75000000 </v>
    <v>       0.75000000       0.00000000       0.00000000 </v>
    <v>       0.75000000       0.00000000       0.25000000 </v>
    <v>       0.75000000       0.00000000       0.50000000 </v>
    <v>       0.75000000       0.00000000       0.75000000 </v>
    <v>       0.75000000       0.25000000       0.00000000 </v>
    <v>       0.75000000       0.25000000       0.25000000 </v>
    <v>       0.75000000       0.25000000       0.50000000 </v>
    <v>       0.75000000       0.25000000       0.75000000 </v>
    <v>       0.75000000       0.50000000       0.00000000 </v>
    <v>       0.75000000       0.50000000       0.25000000 </v>
    <v>       0.75000000       0.50000000       0.50000000 </v>
    <v>       0.75000000       0.50000000       0.75000000 </v>
    <v>       0.75000000       0.75000000       0.00000000 </v>
    <v>       0.75000000       0.75000000       0.25000000 </v>
    <v>       0.75000000       0.75000000       0.50000000 </v>
    <v>       0.75000000       0.75000000       0.75000000 </v>
   </varray>
  </structure>
  <varray name="forces" >
   <v>      -0.12244627      -0.00000000       0.00000000 </v>
   <v>       0.01267147       0.01289232       0.00000000 </v>
   <v>       0.00037781       0.00027050       0.00000000 </v>
   <v>       0.01093507       0.01077328       0.00000000 </v>
   <v>       0.01267147      -0.00000000       0.01289232 </v>
   <v>       0.00183160       0.00110854       0.00110854 </v>
   <v>       0.00045240       0.00101420      -0.00044138 </v>
   <v>       0.00148079       0.00008784      -0.00008784 </v>
   <v>       0.00037781      -0.00000000       0.00027050 </v>
   <v>       0.00045240      -0.00044138       0.00101420 </v>
   <v>      -0.00010959      -0.00000000       0.00000000 </v>
   <v>       0.00051117      -0.00050027       0.00111592 </v>
   <v>       0.01093507      -0.00000000       0.01077328 </v>
   <v>       0.00148079      -0.00008784       0.00008784 </v>
   <v>       0.00051117       0.00111592      -0.00050027 </v>
   <v>       0.00169199       0.00100718       0.00100718 </v>
   <v>       0.00148079      -0.00008784      -0.00008784 </v>
   <v>       0.00051117       0.00111592       0.00050027 </v>
   <v>       0.00169199       0.00100718      -0.00100718 </v>
   <v>       0.01093507      -0.00000000      -0.01077328 </v>
   <v>       0.00051117       0.00050027       0.00111592 </v>
   <v>       0.00045906      -0.00000000       0.00000000 </v>
   <v>       0.00045240       0.00044138      -0.00101420 </v>
   <v>      -0.00122055      -0.00000000       0.00006535 </v>
   <v>       0.00169199      -0.00100718       0.00100718 </v>
   <v>       0.00045240      -0.00101420       0.00044138 </v>
   <v>      -0.00040512      -0.00001408      -0.00001408 </v>
   <v>      -0.00004384      -0.00000000      -0.00017194 </v>
   <v>       0.01093507      -0.01077328       0.00000000 </v>
   <v>      -0.00122055       0.00006535       0.00000000 </v>
   <v>      -0.00004384      -0.00017194       0.00000000 </v>
   <v>       0.00286062      -0.00000000       0.00000000 </v>
   <v>      -0.00010959      -0.00000000      -0.00000000 </v>
   <v>       0.00051117      -0.00050027      -0.00111592 </v>
   <v>       0.00037781      -0.00000000      -0.00027050 </v>
   <v>       0.00045240      -0.00044138      -0.00101420 </v>
   <v>       0.00051117      -0.00111592      -0.00050027 </v>
   <v>       0.00183160      -0.00110854      -0.00110854 </v>
   <v>      -0.00007660      -0.00000000       0.00011901 </v>
   <v>      -0.00040512       0.00001408      -0.00001408 </v>
   <v>       0.00037781      -0.00027050       0.00000000 </v>
   <v>      -0.00007660       0.00011901       0.00000000 </v>
   <v>      -0.00063801      -0.00000000       0.00000000 </v>
   <v>      -0.00004384       0.00017194       0.00000000 </v>
   <v>       0.00045240      -0.00101420      -0.00044138 </v>
   <v>      -0.00040512      -0.00001408       0.00001408 </v>
   <v>      -0.00004384      -0.00000000       0.00017194 </v>
   <v>       0.00169199      -0.00100718      -0.00100718 </v>
   <v>       0.00148079       0.00008784       0.00008784 </v>
   <v>       0.01267147      -0.00000000      -0.01289232 </v>
   <v>       0.00183160       0.00110854      -0.00110854 </v>
   <v>       0.00045240       0.00101420       0.00044138 </v>
   <v>       0.01267147      -0.01289232       0.00000000 </v>
   <v>       0.00284563      -0.00000000       0.00000000 </v>
   <v>      -0.00007660      -0.00011901       0.00000000 </v>
   <v>      -0.00122055      -0.00006535       0.00000000 </v>
   <v>       0.00183160      -0.00110854       0.00110854 </v>
   <v>      -0.00007660      -0.00000000      -0.00011901 </v>
   <v>      -0.00040512       0.00001408       0.00001408 </v>
   <v>       0.00051117      -0.00111592       0.00050027 </v>
   <v>       0.00045240       0.00044138       0.00101420 </v>
   <v>      -0.00122055      -0.00000000      -0.00006535 </v>
   <v>       0.00051117       0.00050027      -0.00111592 </v>
   <v>       0.00045906      -0.00000000       0.00000000 </v>
  </varray>
  <varray name="stress" >
   <v>    -350.89130026       0.00000000       0.00000000 </v>
   <v>      -0.00000000    -350.89529260       0.00000000 </v>
   <v>       0.00000000       0.00000000    -350.89529260 </v>
  </varray>
  <energy>
   <i name="e_fr_energy">   -357.35730226 </i>
   <i name="e_wo_entrp">   -357.32478254 </i>
   <i name="e_0_energy">     -0.09755917 </i>
  </energy>
  <kpoints>
   <generation param="Gamma">
    <v type="int" name="divisions">       3        3        3 </v>
    <v name="usershift">      0.00000000       0.00000000       0.00000000 </v>
    <v name="genvec1">      0.33333333       0.00000000       0.00000000 </v>
    <v name="genvec2">      0.00000000       0.33333333       0.00000000 </v>
    <v name="genvec3">      0.00000000       0.00000000       0.33333333 </v>
    <v name="shift">      0.00000000       0.00000000       0.00000000 </v>
   </generation>
   <varray name="kpointlist" >
    <v>       0.00000000       0.00000000       0.00000000 </v>
    <v>       0.33333333       0.00000000       0.00000000 </v>
    <v>       0.33333333       0.33333333       0.00000000 </v>
    <v>      -0.33333333       0.33333333       0.00000000 </v>
    <v>       0.00000000       0.33333333       0.33333333 </v>
    <v>      -0.33333333       0.33333333       0.33333333 </v>
   </varray>
   <varray name="weights" >
    <v>       0.03703704 </v>
    <v>       0.29629630 </v>
    <v>       0.14814815 </v>
    <v>       0.29629630 </v>
    <v>       0.07407407 </v>
    <v>       0.14814815 </v>
   </varray>
  </kpoints>
  <time name="totalsc">14445.2915246.03</time>
 </calculation>
 <calculation>
  <scstep>
   <time name="dav">  903.84  903.09</time>
   <time name="total">  945.51  944.73</time>
   <energy>
    <i name="alphaZ">   8266.97428417 </i>
    <i name="ewald">-144746.13866053 </i>
    <i name="hartreedc"> -64903.69232463 </i>
    <i name="XCdc">   5598.85517191 </i>
    <i name="pawpsdc"> 170431.60413037 </i>
    <i name="pawaedc">-179450.59112629 </i>
    <i name="eentropy">     -0.09752593 </i>
    <i name="bandstr"> -19567.42468121 </i>
    <i name="atom"> 224013.29143063 </i>
    <i name="e_fr_energy">   -357.21930151 </i>
    <i name="e_wo_entrp">   -357.12177558 </i>
    <i name="e_0_energy">   -357.18679287 </i>
   </energy>
  </scstep>
  <scstep>
   <time name="dav">  727.23  726.62</time>
   <time name="total">  768.95  768.31</time>
   <energy>
    <i name="e_fr_energy">   -357.36055482 </i>
    <i name="e_wo_entrp">   -357.26301753 </i>
    <i name="e_0_energy">   -357.32804239 </i>
   </energy>
  </scstep>
  <scstep>
   <time name="dav">  855.75  855.04</time>
   <time name="total">  897.38  896.63</time>
   <energy>
    <i name="e_fr_energy">   -357.35879769 </i>
    <i name="e_wo_entrp">   -357.26114125 </i>
    <i name="e_0_energy">   -357.32624554 </i>
   </energy>
  </scstep>
  <scstep>
   <time name="dav">  849.77  849.06</time>
   <time name="total">  891.46  890.72</time>
   <energy>
    <i name="e_fr_energy">   -357.36070489 </i>
    <i name="e_wo_entrp">   -357.26313603 </i>
    <i name="e_0_energy">   -357.32818193 </i>
   </energy>
  </scstep>
  <scstep>
   <time name="dav">  762.90  762.27</time>
   <time name="total">  804.60  804.44</time>
   <energy>
    <i name="e_fr_energy">   -357.35875834 </i>
    <i name="e_wo_entrp">   -357.26119761 </i>
    <i name="e_0_energy">   -357.32623810 </i>
   </energy>
  </scstep>
  <scstep>
   <time name="dav">  857.06  856.34</time>
   <time name="total">  898.71  897.97</time>
   <energy>
    <i name="e_fr_energy">   -357.35871352 </i>
    <i name="e_wo_entrp">   -357.26115494 </i>
    <i name="e_0_energy">   -357.32619399 </i>
   </energy>
  </scstep>
  <scstep>
   <time name="dav">  794.74  794.07</time>
   <time name="total">  835.23  834.53</time>
   <energy>
    <i name="e_fr_energy">   -357.35871039 </i>
    <i name="e_wo_entrp">   -357.26114497 </i>
    <i name="e_0_energy">   -357.32618858 </i>
   </energy>
  </scstep>
  <scstep>
   <time name="dav">  779.96  779.31</time>
   <time name="total">  820.60  819.92</time>
   <energy>
    <i name="e_fr_energy">   -357.35868073 </i>
    <i name="e_wo_entrp">   -357.26111151 </i>
    <i name="e_0_energy">   -357.32615766 </i>
   </energy>
  </scstep>
  <scstep>
   <time name="dav">  785.15  784.49</time>
   <time name="total">  825.81  825.12</time>
   <energy>
    <i name="e_fr_energy">   -357.35872110 </i>
    <i name="e_wo_entrp">   -357.26115505 </i>
    <i name="e_0_energy">   -357.32619909 </i>
   </energy>
  </scstep>
  <scstep>
   <time name="dav">  847.41  846.71</time>
   <time name="total">  887.90  887.16</time>
   <energy>
    <i name="e_fr_energy">   -357.35866207 </i>
    <i name="e_wo_entrp">   -357.26110456 </i>
    <i name="e_0_energy">   -357.32614290 </i>
   </energy>
  </scstep>
  <scstep>
   <time name="dav">  881.49  880.75</time>
   <time name="total">  922.05  921.28</time>
   <energy>
    <i name="e_fr_energy">   -357.35865165 </i>
    <i name="e_wo_entrp">   -357.26109645 </i>
    <i name="e_0_energy">   -357.32613325 </i>
   </energy>
  </scstep>
  <scstep>
   <time name="dav">  770.98  770.34</time>
   <time name="total">  811.41  810.73</time>
   <energy>
    <i name="e_fr_energy">   -357.35865409 </i>
    <i name="e_wo_entrp">   -357.26109775 </i>
    <i name="e_0_energy">   -357.32613531 </i>
   </energy>
  </scstep>
  <scstep>
   <time name="dav">  662.86  662.31</time>
   <time name="total">  703.36  702.77</time>
   <energy>
    <i name="e_fr_energy">   -357.35865153 </i>
    <i name="e_wo_entrp">   -357.26109472 </i>
    <i name="e_0_energy">   -357.32613259 </i>
   </energy>
  </scstep>
  <scstep>
   <time name="dav">  452.79  452.41</time>
   <time name="total">  455.99  455.61</time>
   <energy>
    <i name="alphaZ">   8266.97428417 </i>
    <i name="ewald">-144746.13866053 </i>
    <i name="hartreedc"> -64903.67766619 </i>
    <i name="XCdc">   5598.85456364 </i>
    <i name="pawpsdc"> 170431.49607391 </i>
    <i name="pawaedc">-179450.48136153 </i>
    <i name="eentropy">     -0.09755753 </i>
    <i name="bandstr"> -19567.57975846 </i>
    <i name="atom"> 224013.29143063 </i>
    <i name="e_fr_energy">   -357.35865189 </i>
    <i name="e_wo_entrp">   -357.26109437 </i>
    <i name="e_0_energy">   -357.32613272 </i>
   </energy>
  </scstep>
  <structure>
   <crystal>
    <varray name="basis" >
     <v>       0.00000000       7.47300000       7.47300000 </v>
     <v>       7.47300000       0.00000000       7.47300000 </v>
     <v>       7.47300000       7.47300000       0.00000000 </v>
    </varray>
    <i name="volume">    834.67026563 </i>
    <varray name="rec_basis" >
     <v>      -0.06690753       0.06690753       0.06690753 </v>
     <v>       0.06690753      -0.06690753       0.06690753 </v>
     <v>       0.06690753       0.06690753      -0.06690753 </v>
    </varray>
   </crystal>
   <varray name="positions" >
    <v>      -0.00100361       0.00100361       0.00100361 </v>
    <v>       0.00000000       0.00000000       0.25000000 </v>
    <v>       0.00000000       0.00000000       0.50000000 </v>
    <v>       0.00000000       0.00000000       0.75000000 </v>
    <v>       0.00000000       0.25000000       0.00000000 </v>
    <v>       0.00000000       0.25000000       0.25000000 </v>
    <v>       0.00000000       0.25000000       0.50000000 </v>
    <v>       0.00000000       0.25000000       0.75000000 </v>
    <v>       0.00000000       0.50000000       0.00000000 </v>
    <v>       0.00000000       0.50000000       0.25000000 </v>
    <v>       0.00000000       0.50000000       0.50000000 </v>
    <v>       0.00000000       0.50000000       0.75000000 </v>
    <v>       0.00000000       0.75000000       0.00000000 </v>
    <v>       0.00000000       0.75000000       0.25000000 </v>
    <v>       0.00000000       0.75000000       0.50000000 </v>
    <v>       0.00000000       0.75000000       0.75000000 </v>
    <v>       0.25000000       0.00000000       0.00000000 </v>
    <v>       0.25000000       0.00000000       0.25000000 </v>
    <v>       0.25000000       0.00000000       0.50000000 </v>
    <v>       0.25000000       0.00000000       0.75000000 </v>
    <v>       0.25000000       0.25000000       0.00000000 </v>
    <v>       0.25000000       0.25000000       0.25000000 </v>
    <v>       0.25000000       0.25000000       0.50000000 </v>
    <v>       0.25000000       0.25000000       0.75000000 </v>
    <v>       0.25000000       0.50000000       0.00000000 </v>
    <v>       0.25000000       0.50000000       0.25000000 </v>
    <v>       0.25000000       0.50000000       0.50000000 </v>
    <v>       0.25000000       0.50000000       0.75000000 </v>
    <v>       0.25000000       0.75000000       0.00000000 </v>
    <v>       0.25000000       0.75000000       0.25000000 </v>
    <v>       0.25000000       0.75000000       0.50000000 </v>
    <v>       0.25000000       0.75000000       0.75000000 </v>
    <v>       0.50000000       0.00000000       0.00000000 </v>
    <v>       0.50000000       0.00000000       0.25000000 </v>
    <v>       0.50000000       0.00000000       0.50000000 </v>
    <v>       0.50000000       0.00000000       0.75000000 </v>
    <v>       0.50000000       0.25000000       0.00000000 </v>
    <v>       0.50000000       0.25000000       0.25000000 </v>
    <v>       0.50000000       0.25000000       0.50000000 </v>
    <v>       0.50000000       0.25000000       0.75000000 </v>
    <v>       0.50000000       0.50000000       0.00000000 </v>
    <v>       0.50000000       0.50000000       0.25000000 </v>
    <v>       0.50000000       0.50000000       0.50000000 </v>
    <v>       0.50000000       0.50000000       0.75000000 </v>
    <v>       0.50000000       0.75000000       0.00000000 </v>
    <v>       0.50000000       0.75000000       0.25000000 </v>
    <v>       0.50000000       0.75000000       0.50000000 </v>
    <v>       0.50000000       0.75000000       0.75000000 </v>
    <v>       0.75000000       0.00000000       0.00000000 </v>
    <v>       0.75000000       0.00000000       0.25000000 </v>
    <v>       0.75000000       0.00000000       0.50000000 </v>
    <v>       0.75000000       0.00000000       0.75000000 </v>
    <v>       0.75000000       0.25000000       0.00000000 </v>
    <v>       0.75000000       0.25000000       0.25000000 </v>
    <v>       0.75000000       0.25000000       0.50000000 </v>
    <v>       0.75000000       0.25000000       0.75000000 </v>
    <v>       0.75000000       0.50000000       0.00000000 </v>
    <v>       0.75000000       0.50000000       0.25000000 </v>
    <v>       0.75000000       0.50000000       0.50000000 </v>
    <v>       0.75000000       0.50000000       0.75000000 </v>
    <v>       0.75000000       0.75000000       0.00000000 </v>
    <v>       0.75000000       0.75000000       0.25000000 </v>
    <v>       0.75000000       0.75000000       0.50000000 </v>
    <v>       0.75000000       0.75000000       0.75000000 </v>
   </varray>
  </structure>
  <varray name="forces" >
   <v>      -0.06137107      -0.00000000       0.00000000 </v>
   <v>       0.00604691       0.00614267      -0.00000000 </v>
   <v>       0.00014245       0.00022939       0.00000000 </v>
   <v>       0.00560682       0.00561187       0.00000000 </v>
   <v>       0.00604691      -0.00000000       0.00614267 </v>
   <v>       0.00088653       0.00060129       0.00060129 </v>
   <v>       0.00024153       0.00054168      -0.00025969 </v>
   <v>       0.00089500       0.00002475      -0.00002475 </v>
   <v>       0.00014245      -0.00000000       0.00022939 </v>
   <v>       0.00024153      -0.00025969       0.00054168 </v>
   <v>       0.00003605      -0.00000000      -0.00000000 </v>
   <v>       0.00024952      -0.00027066       0.00061816 </v>
   <v>       0.00560682      -0.00000000       0.00561187 </v>
   <v>       0.00089500      -0.00002475       0.00002475 </v>
   <v>       0.00024952       0.00061816      -0.00027066 </v>
   <v>       0.00079337       0.00057197       0.00057197 </v>
   <v>       0.00089500      -0.00002475      -0.00002475 </v>
   <v>       0.00024952       0.00061816       0.00027066 </v>
   <v>       0.00079337       0.00057197      -0.00057197 </v>
   <v>       0.00560682      -0.00000000      -0.00561187 </v>
   <v>       0.00024952       0.00027066       0.00061816 </v>
   <v>       0.00009270      -0.00000000       0.00000000 </v>
   <v>       0.00024153       0.00025969      -0.00054168 </v>
   <v>      -0.00053982      -0.00000000       0.00006239 </v>
   <v>       0.00079337      -0.00057197       0.00057197 </v>
   <v>       0.00024153      -0.00054168       0.00025969 </v>
   <v>      -0.00011925      -0.00000589      -0.00000589 </v>
   <v>       0.00000121      -0.00000000      -0.00009158 </v>
   <v>       0.00560682      -0.00561187       0.00000000 </v>
   <v>      -0.00053982       0.00006239       0.00000000 </v>
   <v>       0.00000121      -0.00009158       0.00000000 </v>
   <v>       0.00129492      -0.00000000       0.00000000 </v>
   <v>       0.00003605      -0.00000000       0.00000000 </v>
   <v>       0.00024952      -0.00027066      -0.00061816 </v>
   <v>       0.00014245      -0.00000000      -0.00022939 </v>
   <v>       0.00024153      -0.00025969      -0.00054168 </v>
   <v>       0.00024952      -0.00061816      -0.00027066 </v>
   <v>       0.00088653      -0.00060129      -0.00060129 </v>
   <v>      -0.00000783      -0.00000000       0.00007168 </v>
   <v>      -0.00011925       0.00000589      -0.00000589 </v>
   <v>       0.00014245      -0.00022939       0.00000000 </v>
   <v>      -0.00000783       0.00007168       0.00000000 </v>
   <v>      -0.00029318      -0.00000000       0.00000000 </v>
   <v>       0.00000121       0.00009158       0.00000000 </v>
   <v>       0.00024153      -0.00054168      -0.00025969 </v>
   <v>      -0.00011925      -0.00000589       0.00000589 </v>
   <v>       0.00000121      -0.00000000       0.00009158 </v>
   <v>       0.00079337      -0.00057197      -0.00057197 </v>
   <v>       0.00089500       0.00002475       0.00002475 </v>
   <v>       0.00604691      -0.00000000      -0.00614267 </v>
   <v>       0.00088653       0.00060129      -0.00060129 </v>
   <v>       0.00024153       0.00054168       0.00025969 </v>
   <v>       0.00604691      -0.00614267       0.00000000 </v>
   <v>       0.00136181      -0.00000000       0.00000000 </v>
   <v>      -0.00000783      -0.00007168       0.00000000 </v>
   <v>      -0.00053982      -0.00006239       0.00000000 </v>
   <v>       0.00088653      -0.00060129       0.00060129 </v>
   <v>      -0.00000783      -0.00000000      -0.00007168 </v>
   <v>      -0.00011925       0.00000589       0.00000589 </v>
   <v>       0.00024952      -0.00061816       0.00027066 </v>
   <v>       0.00024153       0.00025969       0.00054168 </v>
   <v>      -0.00053982      -0.00000000      -0.00006239 </v>
   <v>       0.00024952       0.00027066      -0.00061816 </v>
   <v>       0.00009270      -0.00000000       0.00000000 </v>
  </varray>
  <varray name="stress" >
   <v>    -350.89986388       0.00000000      -0.00000000 </v>
   <v>       0.00000000    -350.90439363       0.00000000 </v>
   <v>       0.00000000       0.00000000    -350.90439363 </v>
  </varray>
  <energy>
   <i name="e_fr_energy">   -357.35865189 </i>
   <i name="e_wo_entrp">   -357.32613272 </i>
   <i name="e_0_energy">     -0.09755753 </i>
  </energy>
  <kpoints>
   <generation param="Gamma">
    <v type="int" name="divisions">       3        3        3 </v>
    <v name="usershift">      0.00000000       0.00000000       0.00000000 </v>
    <v name="genvec1">      0.33333333       0.00000000       0.00000000 </v>
    <v name="genvec2">      0.00000000       0.33333333       0.00000000 </v>
    <v name="genvec3">      0.00000000       0.00000000       0.33333333 </v>
    <v name="shift">      0.00000000       0.00000000       0.00000000 </v>
   </generation>
   <varray name="kpointlist" >
    <v>       0.00000000       0.00000000       0.00000000 </v>
    <v>       0.33333333       0.00000000       0.00000000 </v>
    <v>       0.33333333       0.33333333       0.00000000 </v>
    <v>      -0.33333333       0.33333333       0.00000000 </v>
    <v>       0.00000000       0.33333333       0.33333333 </v>
    <v>      -0.33333333       0.33333333       0.33333333 </v>
   </varray>
   <varray name="weights" >
    <v>       0.03703704 </v>
    <v>       0.29629630 </v>
    <v>       0.14814815 </v>
    <v>       0.29629630 </v>
    <v>       0.07407407 </v>
    <v>       0.14814815 </v>
   </varray>
  </kpoints>
  <time name="totalsc">12426.1912416.35</time>
 </calculation>
 <calculation>
  <scstep>
   <time name="dav">  900.07  899.32</time>
   <time name="total">  940.48  939.69</time>
   <energy>
    <i name="alphaZ">   8266.97428417 </i>
    <i name="ewald">-144746.13866053 </i>
    <i name="hartreedc"> -64903.71668200 </i>
    <i name="XCdc">   5598.85670402 </i>
    <i name="pawpsdc"> 170431.48657961 </i>
    <i name="pawaedc">-179450.47174196 </i>
    <i name="eentropy">     -0.09746455 </i>
    <i name="bandstr"> -19567.25024253 </i>
    <i name="atom"> 224013.29143063 </i>
    <i name="e_fr_energy">   -357.06579315 </i>
    <i name="e_wo_entrp">   -356.96832860 </i>
    <i name="e_0_energy">   -357.03330496 </i>
   </energy>
  </scstep>
  <scstep>
   <time name="dav">  732.85  732.24</time>
   <time name="total">  774.50  773.85</time>
   <energy>
    <i name="e_fr_energy">   -357.37705206 </i>
    <i name="e_wo_entrp">   -357.28011854 </i>
    <i name="e_0_energy">   -357.34474089 </i>
   </energy>
  </scstep>
  <scstep>
   <time name="dav">  833.06  832.37</time>
   <time name="total">  874.77  874.04</time>
   <energy>
    <i name="e_fr_energy">   -357.36227881 </i>
    <i name="e_wo_entrp">   -357.26454336 </i>
    <i name="e_0_energy">   -357.32970033 </i>
   </energy>
  </scstep>
  <scstep>
   <time name="dav">  847.01  846.30</time>
   <time name="total">  888.71  887.97</time>
   <energy>
    <i name="e_fr_energy">   -357.37101398 </i>
    <i name="e_wo_entrp">   -357.27366123 </i>
    <i name="e_0_energy">   -357.33856307 </i>
   </energy>
  </scstep>
  <scstep>
   <time name="dav">  763.96  763.32</time>
   <time name="total">  805.64  804.97</time>
   <energy>
    <i name="e_fr_energy">   -357.35935547 </i>
    <i name="e_wo_entrp">   -357.26176491 </i>
    <i name="e_0_energy">   -357.32682528 </i>
   </energy>
  </scstep>
  <scstep>
   <time name="dav">  876.46  875.73</time>
   <time name="total">  918.11  917.35</time>
   <energy>
    <i name="e_fr_energy">   -357.35913927 </i>
    <i name="e_wo_entrp">   -357.26155491 </i>
    <i name="e_0_energy">   -357.32661115 </i>
   </energy>
  </scstep>
  <scstep>
   <time name="dav">  781.51  780.86</time>
   <time name="total">  822.03  821.35</time>
   <energy>
    <i name="e_fr_energy">   -357.35906955 </i>
    <i name="e_wo_entrp">   -357.26148531 </i>
    <i name="e_0_energy">   -357.32654147 </i>
   </energy>
  </scstep>
  <scstep>
   <time name="dav">  775.65  775.00</time>
   <time name="total">  816.15  815.47</time>
   <energy>
    <i name="e_fr_energy">   -357.35892222 </i>
    <i name="e_wo_entrp">   -357.26134374 </i>
    <i name="e_0_energy">   -357.32639606 </i>
   </energy>
  </scstep>
  <scstep>
   <time name="dav">  777.12  776.47</time>
   <time name="total">  817.53  816.85</time>
   <energy>
    <i name="e_fr_energy">   -357.35905320 </i>
    <i name="e_wo_entrp">   -357.26148155 </i>
    <i name="e_0_energy">   -357.32652932 </i>
   </energy>
  </scstep>
  <scstep>
   <time name="dav">  861.96  861.25</time>
   <time name="total">  902.32  901.57</time>
   <energy>
    <i name="e_fr_energy">   -357.35873480 </i>
    <i name="e_wo_entrp">   -357.26118733 </i>
    <i name="e_0_energy">   -357.32621898 </i>
   </energy>
  </scstep>
  <scstep>
   <time name="dav">  889.98  889.24</time>
   <time name="total">  930.49  929.72</time>
   <energy>
    <i name="e_fr_energy">   -357.35865370 </i>
    <i name="e_wo_entrp">   -357.26110442 </i>
    <i name="e_0_energy">   -357.32613728 </i>
   </energy>
  </scstep>
  <scstep>
   <time name="dav">  917.67  916.91</time>
   <time name="total">  959.37  958.57</time>
   <energy>
    <i name="e_fr_energy">   -357.35867655 </i>
    <i name="e_wo_entrp">   -357.26112114 </i>
    <i name="e_0_energy">   -357.32615808 </i>
   </energy>
  </scstep>
  <scstep>
   <time name="dav">  782.03  781.37</time>
   <time name="total">  823.65  822.97</time>
   <energy>
    <i name="e_fr_energy">   -357.35865147 </i>
    <i name="e_wo_entrp">   -357.26109159 </i>
    <i name="e_0_energy">   -357.32613151 </i>
   </energy>
  </scstep>
  <scstep>
   <time name="dav">  849.19  848.48</time>
   <time name="total">  890.98  890.24</time>
   <energy>
    <i name="e_fr_energy">   -357.35865765 </i>
    <i name="e_wo_entrp">   -357.26109996 </i>
    <i name="e_0_energy">   -357.32613842 </i>
   </energy>
  </scstep>
  <scstep>
   <time name="dav">  691.15  690.57</time>
   <time name="total">  732.75  732.14</time>
   <energy>
    <i name="e_fr_energy">   -357.35865159 </i>
    <i name="e_wo_entrp">   -357.26109391 </i>
    <i name="e_0_energy">   -357.32613236 </i>
   </energy>
  </scstep>
  <scstep>
   <time name="dav">  458.74  458.36</time>
   <time name="total">  461.94  461.56</time>
   <energy>
    <i name="alphaZ">   8266.97428417 </i>
    <i name="ewald">-144746.13866053 </i>
    <i name="hartreedc"> -64903.67743422 </i>
    <i name="XCdc">   5598.85455063 </i>
    <i name="pawpsdc"> 170431.49524752 </i>
    <i name="pawaedc">-179450.48131500 </i>
    <i name="eentropy">     -0.09755720 </i>
    <i name="bandstr"> -19567.57919754 </i>
    <i name="atom"> 224013.29143063 </i>
    <i name="e_fr_energy">   -357.35865154 </i>
    <i name="e_wo_entrp">   -357.26109434 </i>
    <i name="e_0_energy">   -357.32613247 </i>
   </energy>
  </scstep>
  <structure>
   <crystal>
    <varray name="basis" >
     <v>       0.00000000       7.47300000       7.47300000 </v>
     <v>       7.47300000       0.00000000       7.47300000 </v>
     <v>       7.47300000       7.47300000       0.00000000 </v>
    </varray>
    <i name="volume">    834.67026563 </i>
    <varray name="rec_basis" >
     <v>      -0.06690753       0.06690753       0.06690753 </v>
     <v>       0.06690753      -0.06690753       0.06690753 </v>
     <v>       0.06690753       0.06690753      -0.06690753 </v>
    </varray>
   </crystal>
   <varray name="positions" >
    <v>       0.00100361      -0.00100361      -0.00100361 </v>
    <v>       0.00000000       0.00000000       0.25000000 </v>
    <v>       0.00000000       0.00000000       0.50000000 </v>
    <v>       0.00000000       0.00000000       0.75000000 </v>
    <v>       0.00000000       0.25000000       0.00000000 </v>
    <v>       0.00000000       0.25000000       0.25000000 </v>
    <v>       0.00000000       0.25000000       0.50000000 </v>
    <v>       0.00000000       0.25000000       0.75000000 </v>
    <v>       0.00000000       0.50000000       0.00000000 </v>
    <v>       0.00000000       0.50000000       0.25000000 </v>
    <v>       0.00000000       0.50000000       0.50000000 </v>
    <v>       0.00000000       0.50000000       0.75000000 </v>
    <v>       0.00000000       0.75000000       0.00000000 </v>
    <v>       0.00000000       0.75000000       0.25000000 </v>
    <v>       0.00000000       0.75000000       0.50000000 </v>
    <v>       0.00000000       0.75000000       0.75000000 </v>
    <v>       0.25000000       0.00000000       0.00000000 </v>
    <v>       0.25000000       0.00000000       0.25000000 </v>
    <v>       0.25000000       0.00000000       0.50000000 </v>
    <v>       0.25000000       0.00000000       0.75000000 </v>
    <v>       0.25000000       0.25000000       0.00000000 </v>
    <v>       0.25000000       0.25000000       0.25000000 </v>
    <v>       0.25000000       0.25000000       0.50000000 </v>
    <v>       0.25000000       0.25000000       0.75000000 </v>
    <v>       0.25000000       0.50000000       0.00000000 </v>
    <v>       0.25000000       0.50000000       0.25000000 </v>
    <v>       0.25000000       0.50000000       0.50000000 </v>
    <v>       0.25000000       0.50000000       0.75000000 </v>
    <v>       0.25000000       0.75000000       0.00000000 </v>
    <v>       0.25000000       0.75000000       0.25000000 </v>
    <v>       0.25000000       0.75000000       0.50000000 </v>
    <v>       0.25000000       0.75000000       0.75000000 </v>
    <v>       0.50000000       0.00000000       0.00000000 </v>
    <v>       0.50000000       0.00000000       0.25000000 </v>
    <v>       0.50000000       0.00000000       0.50000000 </v>
    <v>       0.50000000       0.00000000       0.75000000 </v>
    <v>       0.50000000       0.25000000       0.00000000 </v>
    <v>       0.50000000       0.25000000       0.25000000 </v>
    <v>       0.50000000       0.25000000       0.50000000 </v>
    <v>       0.50000000       0.25000000       0.75000000 </v>
    <v>       0.50000000       0.50000000       0.00000000 </v>
    <v>       0.50000000       0.50000000       0.25000000 </v>
    <v>       0.50000000       0.50000000       0.50000000 </v>
    <v>       0.50000000       0.50000000       0.75000000 </v>
    <v>       0.50000000       0.75000000       0.00000000 </v>
    <v>       0.50000000       0.75000000       0.25000000 </v>
    <v>       0.50000000       0.75000000       0.50000000 </v>
    <v>       0.50000000       0.75000000       0.75000000 </v>
    <v>       0.75000000       0.00000000       0.00000000 </v>
    <v>       0.75000000       0.00000000       0.25000000 </v>
    <v>       0.75000000       0.00000000       0.50000000 </v>
    <v>       0.75000000       0.00000000       0.75000000 </v>
    <v>       0.75000000       0.25000000       0.00000000 </v>
    <v>       0.75000000       0.25000000       0.25000000 </v>
    <v>       0.75000000       0.25000000       0.50000000 </v>
    <v>       0.75000000       0.25000000       0.75000000 </v>
    <v>       0.75000000       0.50000000       0.00000000 </v>
    <v>       0.75000000       0.50000000       0.25000000 </v>
    <v>       0.75000000       0.50000000       0.50000000 </v>
    <v>       0.75000000       0.50000000       0.75000000 </v>
    <v>       0.75000000       0.75000000       0.00000000 </v>
    <v>       0.75000000       0.75000000       0.25000000 </v>
    <v>       0.75000000       0.75000000       0.50000000 </v>
    <v>       0.75000000       0.75000000       0.75000000 </v>
   </varray>
  </structure>
  <varray name="forces" >
[...]
       <r>    19.3006     0.0000   646.0000 </r>
       <r>    19.5782     0.0000   646.0000 </r>
       <r>    19.8558     0.0000   646.0000 </r>
       <r>    20.1334     0.0000   646.0000 </r>
       <r>    20.4110     0.0000   646.0000 </r>
       <r>    20.6887     0.0000   646.0000 </r>
       <r>    20.9663     0.0000   646.0000 </r>
       <r>    21.2439     0.0000   646.0000 </r>
       <r>    21.5215     0.0000   646.0000 </r>
      </set>
      <set comment="spin 2">
       <r>   -61.7648     0.0000     0.0000 </r>
       <r>   -61.4871     0.0000     0.0000 </r>
       <r>   -61.2095     0.0000     0.0000 </r>
       <r>   -60.9319     0.0000     0.0000 </r>
       <r>   -60.6543     0.0000     0.0000 </r>
       <r>   -60.3766     0.0000     0.0000 </r>
       <r>   -60.0990     0.0000     0.0000 </r>
       <r>   -59.8214     0.0000     0.0000 </r>
       <r>   -59.5438     0.0000     0.0000 </r>
       <r>   -59.2662     0.0000     0.0000 </r>
       <r>   -58.9885     0.0000     0.0000 </r>
       <r>   -58.7109    -0.0000    -0.0000 </r>
       <r>   -58.4333    -0.0000    -0.0000 </r>
       <r>   -58.1557    -0.0000    -0.0000 </r>
       <r>   -57.8781    -0.0000    -0.0000 </r>
       <r>   -57.6004    -0.0619    -0.0172 </r>
       <r>   -57.3228   -13.3618    -3.7267 </r>
       <r>   -57.0452   198.2073    51.2998 </r>
       <r>   -56.7676   524.6878   196.9641 </r>
       <r>   -56.4900   -16.7973   192.3008 </r>
       <r>   -56.2123    -1.0832   192.0001 </r>
       <r>   -55.9347    -0.0004   192.0000 </r>
       <r>   -55.6571    -0.0000   192.0000 </r>
       <r>   -55.3795     0.0000   192.0000 </r>
       <r>   -55.1018     0.0000   192.0000 </r>
       <r>   -54.8242     0.0000   192.0000 </r>
       <r>   -54.5466     0.0000   192.0000 </r>
       <r>   -54.2690     0.0000   192.0000 </r>
       <r>   -53.9914     0.0000   192.0000 </r>
       <r>   -53.7137     0.0000   192.0000 </r>
       <r>   -53.4361     0.0000   192.0000 </r>
       <r>   -53.1585     0.0000   192.0000 </r>
       <r>   -52.8809     0.0000   192.0000 </r>
       <r>   -52.6033     0.0000   192.0000 </r>
       <r>   -52.3256     0.0000   192.0000 </r>
       <r>   -52.0480     0.0000   192.0000 </r>
       <r>   -51.7704     0.0000   192.0000 </r>
       <r>   -51.4928     0.0000   192.0000 </r>
       <r>   -51.2152     0.0000   192.0000 </r>
       <r>   -50.9375     0.0000   192.0000 </r>
       <r>   -50.6599     0.0000   192.0000 </r>
       <r>   -50.3823     0.0000   192.0000 </r>
       <r>   -50.1047     0.0000   192.0000 </r>
       <r>   -49.8271     0.0000   192.0000 </r>
       <r>   -49.5494     0.0000   192.0000 </r>
       <r>   -49.2718     0.0000   192.0000 </r>
       <r>   -48.9942     0.0000   192.0000 </r>
       <r>   -48.7166     0.0000   192.0000 </r>
       <r>   -48.4389     0.0000   192.0000 </r>
       <r>   -48.1613     0.0000   192.0000 </r>
       <r>   -47.8837     0.0000   192.0000 </r>
       <r>   -47.6061     0.0000   192.0000 </r>
       <r>   -47.3285     0.0000   192.0000 </r>
       <r>   -47.0508     0.0000   192.0000 </r>
       <r>   -46.7732     0.0000   192.0000 </r>
       <r>   -46.4956     0.0000   192.0000 </r>
       <r>   -46.2180     0.0000   192.0000 </r>
       <r>   -45.9404     0.0000   192.0000 </r>
       <r>   -45.6627     0.0000   192.0000 </r>
       <r>   -45.3851     0.0000   192.0000 </r>
       <r>   -45.1075     0.0000   192.0000 </r>
       <r>   -44.8299     0.0000   192.0000 </r>
       <r>   -44.5523     0.0000   192.0000 </r>
       <r>   -44.2746     0.0000   192.0000 </r>
       <r>   -43.9970     0.0000   192.0000 </r>
       <r>   -43.7194     0.0000   192.0000 </r>
       <r>   -43.4418     0.0000   192.0000 </r>
       <r>   -43.1642     0.0000   192.0000 </r>
       <r>   -42.8865     0.0000   192.0000 </r>
       <r>   -42.6089     0.0000   192.0000 </r>
       <r>   -42.3313     0.0000   192.0000 </r>
       <r>   -42.0537     0.0000   192.0000 </r>
       <r>   -41.7760     0.0000   192.0000 </r>
       <r>   -41.4984     0.0000   192.0000 </r>
       <r>   -41.2208     0.0000   192.0000 </r>
       <r>   -40.9432     0.0000   192.0000 </r>
       <r>   -40.6656     0.0000   192.0000 </r>
       <r>   -40.3879     0.0000   192.0000 </r>
       <r>   -40.1103     0.0000   192.0000 </r>
       <r>   -39.8327     0.0000   192.0000 </r>
       <r>   -39.5551     0.0000   192.0000 </r>
       <r>   -39.2775     0.0000   192.0000 </r>
       <r>   -38.9998     0.0000   192.0000 </r>
       <r>   -38.7222     0.0000   192.0000 </r>
       <r>   -38.4446     0.0000   192.0000 </r>
       <r>   -38.1670     0.0000   192.0000 </r>
       <r>   -37.8894     0.0000   192.0000 </r>
       <r>   -37.6117     0.0000   192.0000 </r>
       <r>   -37.3341     0.0000   192.0000 </r>
       <r>   -37.0565     0.0000   192.0000 </r>
       <r>   -36.7789     0.0000   192.0000 </r>
       <r>   -36.5012     0.0000   192.0000 </r>
       <r>   -36.2236     0.0000   192.0000 </r>
       <r>   -35.9460     0.0000   192.0000 </r>
       <r>   -35.6684     0.0000   192.0000 </r>
       <r>   -35.3908     0.0000   192.0000 </r>
       <r>   -35.1131     0.0000   192.0000 </r>
       <r>   -34.8355     0.0000   192.0000 </r>
       <r>   -34.5579     0.0000   192.0000 </r>
       <r>   -34.2803     0.0000   192.0000 </r>
       <r>   -34.0027     0.0000   192.0000 </r>
       <r>   -33.7250     0.0000   192.0000 </r>
       <r>   -33.4474     0.0000   192.0000 </r>
       <r>   -33.1698     0.0000   192.0000 </r>
       <r>   -32.8922     0.0000   192.0000 </r>
       <r>   -32.6146     0.0000   192.0000 </r>
       <r>   -32.3369     0.0000   192.0000 </r>
       <r>   -32.0593     0.0000   192.0000 </r>
       <r>   -31.7817     0.0000   192.0000 </r>
       <r>   -31.5041     0.0000   192.0000 </r>
       <r>   -31.2265     0.0000   192.0000 </r>
       <r>   -30.9488     0.0000   192.0000 </r>
       <r>   -30.6712     0.0000   192.0000 </r>
       <r>   -30.3936     0.0000   192.0000 </r>
       <r>   -30.1160     0.0000   192.0000 </r>
       <r>   -29.8383     0.0000   192.0000 </r>
       <r>   -29.5607     0.0000   192.0000 </r>
       <r>   -29.2831     0.0000   192.0000 </r>
       <r>   -29.0055     0.0000   192.0000 </r>
       <r>   -28.7279     0.0000   192.0000 </r>
       <r>   -28.4502     0.0000   192.0000 </r>
       <r>   -28.1726     0.0000   192.0000 </r>
       <r>   -27.8950     0.0000   192.0000 </r>
       <r>   -27.6174     0.0000   192.0000 </r>
       <r>   -27.3398     0.0000   192.0000 </r>
       <r>   -27.0621     0.0000   192.0000 </r>
       <r>   -26.7845     0.0000   192.0000 </r>
       <r>   -26.5069     0.0000   192.0000 </r>
       <r>   -26.2293     0.0000   192.0000 </r>
       <r>   -25.9517     0.0000   192.0000 </r>
       <r>   -25.6740     0.0000   192.0000 </r>
       <r>   -25.3964     0.0000   192.0000 </r>
       <r>   -25.1188     0.0000   192.0000 </r>
       <r>   -24.8412     0.0000   192.0000 </r>
       <r>   -24.5635     0.0000   192.0000 </r>
       <r>   -24.2859     0.0000   192.0000 </r>
       <r>   -24.0083     0.0000   192.0000 </r>
       <r>   -23.7307     0.0000   192.0000 </r>
       <r>   -23.4531     0.0000   192.0000 </r>
       <r>   -23.1754     0.0000   192.0000 </r>
       <r>   -22.8978     0.0000   192.0000 </r>
       <r>   -22.6202     0.0000   192.0000 </r>
       <r>   -22.3426     0.0000   192.0000 </r>
       <r>   -22.0650     0.0000   192.0000 </r>
       <r>   -21.7873     0.0000   192.0000 </r>
       <r>   -21.5097     0.0000   192.0000 </r>
       <r>   -21.2321     0.0000   192.0000 </r>
       <r>   -20.9545     0.0000   192.0000 </r>
       <r>   -20.6769     0.0000   192.0000 </r>
       <r>   -20.3992     0.0000   192.0000 </r>
       <r>   -20.1216     0.0000   192.0000 </r>
       <r>   -19.8440     0.0000   192.0000 </r>
       <r>   -19.5664     0.0000   192.0000 </r>
       <r>   -19.2888     0.0000   192.0000 </r>
       <r>   -19.0111     0.0000   192.0000 </r>
       <r>   -18.7335     0.0000   192.0000 </r>
       <r>   -18.4559     0.0000   192.0000 </r>
       <r>   -18.1783     0.0000   192.0000 </r>
       <r>   -17.9006     0.0000   192.0000 </r>
       <r>   -17.6230     0.0000   192.0000 </r>
       <r>   -17.3454     0.0000   192.0000 </r>
       <r>   -17.0678     0.0000   192.0000 </r>
       <r>   -16.7902     0.0000   192.0000 </r>
       <r>   -16.5125     0.0000   192.0000 </r>
       <r>   -16.2349     0.0000   192.0000 </r>
       <r>   -15.9573     0.0000   192.0000 </r>
       <r>   -15.6797     0.0000   192.0000 </r>
       <r>   -15.4021     0.0000   192.0000 </r>
       <r>   -15.1244     0.0000   192.0000 </r>
       <r>   -14.8468     0.0000   192.0000 </r>
       <r>   -14.5692     0.0000   192.0000 </r>
       <r>   -14.2916     0.0000   192.0000 </r>
       <r>   -14.0140     0.0000   192.0000 </r>
       <r>   -13.7363     0.0000   192.0000 </r>
       <r>   -13.4587     0.0000   192.0000 </r>
       <r>   -13.1811     0.0000   192.0000 </r>
       <r>   -12.9035     0.0000   192.0000 </r>
       <r>   -12.6259     0.0000   192.0000 </r>
       <r>   -12.3482     0.0000   192.0000 </r>
       <r>   -12.0706     0.0000   192.0000 </r>
       <r>   -11.7930     0.0000   192.0000 </r>
       <r>   -11.5154     0.0000   192.0000 </r>
       <r>   -11.2377     0.0000   192.0000 </r>
       <r>   -10.9601     0.0000   192.0000 </r>
       <r>   -10.6825     0.0000   192.0000 </r>
       <r>   -10.4049     0.0000   192.0000 </r>
       <r>   -10.1273     0.0000   192.0000 </r>
       <r>    -9.8496     0.0000   192.0000 </r>
       <r>    -9.5720     0.0000   192.0000 </r>
       <r>    -9.2944     0.0000   192.0000 </r>
       <r>    -9.0168     0.0000   192.0000 </r>
       <r>    -8.7392     0.0000   192.0000 </r>
       <r>    -8.4615     0.0000   192.0000 </r>
       <r>    -8.1839     0.0000   192.0000 </r>
       <r>    -7.9063     0.0000   192.0000 </r>
       <r>    -7.6287     0.0000   192.0000 </r>
       <r>    -7.3511     0.0000   192.0000 </r>
       <r>    -7.0734     0.0000   192.0000 </r>
       <r>    -6.7958     0.0000   192.0000 </r>
       <r>    -6.5182     0.0000   192.0000 </r>
       <r>    -6.2406     0.0000   192.0000 </r>
       <r>    -5.9629     0.0000   192.0000 </r>
       <r>    -5.6853     0.0000   192.0000 </r>
       <r>    -5.4077     0.0000   192.0000 </r>
       <r>    -5.1301     0.0000   192.0000 </r>
       <r>    -4.8525     0.0000   192.0000 </r>
       <r>    -4.5748     0.0000   192.0000 </r>
       <r>    -4.2972     0.0000   192.0000 </r>
       <r>    -4.0196     0.0000   192.0000 </r>
       <r>    -3.7420    -0.0000   192.0000 </r>
       <r>    -3.4644    -0.0000   192.0000 </r>
       <r>    -3.1867    -0.0000   192.0000 </r>
       <r>    -2.9091    -0.0000   192.0000 </r>
       <r>    -2.6315    -0.0001   192.0000 </r>
       <r>    -2.3539    -0.0069   191.9980 </r>
       <r>    -2.0763     0.0436   192.0101 </r>
       <r>    -1.7986     1.3219   192.3771 </r>
       <r>    -1.5210     1.1324   192.6915 </r>
       <r>    -1.2434     3.2193   193.5853 </r>
       <r>    -0.9658     2.3066   194.2256 </r>
       <r>    -0.6882     2.2690   194.8555 </r>
       <r>    -0.4105     5.1824   196.2943 </r>
       <r>    -0.1329     4.2159   197.4647 </r>
       <r>     0.1447     2.9466   198.2827 </r>
       <r>     0.4223     4.6560   199.5753 </r>
       <r>     0.7000     8.1309   201.8326 </r>
       <r>     0.9776     6.0675   203.5171 </r>
       <r>     1.2552     3.8874   204.5963 </r>
       <r>     1.5328     8.7412   207.0231 </r>
       <r>     1.8104    13.3723   210.7355 </r>
       <r>     2.0881    10.5142   213.6545 </r>
       <r>     2.3657    14.8954   217.7897 </r>
       <r>     2.6433    34.7027   227.4239 </r>
       <r>     2.9209    32.8318   236.5387 </r>
       <r>     3.1985    46.1279   249.3448 </r>
       <r>     3.4762    64.6558   267.2946 </r>
       <r>     3.7538    65.1989   285.3952 </r>
       <r>     4.0314    70.9541   305.0935 </r>
       <r>     4.3090    95.5452   331.6189 </r>
       <r>     4.5866   114.5774   363.4280 </r>
       <r>     4.8643   108.6937   393.6036 </r>
       <r>     5.1419    90.0564   418.6052 </r>
       <r>     5.4195   105.9615   448.0223 </r>
       <r>     5.6971    96.5732   474.8330 </r>
       <r>     5.9748   128.0328   510.3776 </r>
       <r>     6.2524    74.0430   530.9335 </r>
       <r>     6.5300    19.3458   536.3043 </r>
       <r>     6.8076     7.4700   538.3781 </r>
       <r>     7.0852    14.5780   542.4253 </r>
       <r>     7.3629    13.8241   546.2631 </r>
       <r>     7.6405    11.2689   549.3916 </r>
       <r>     7.9181     6.0235   551.0639 </r>
       <r>     8.1957    11.0515   554.1320 </r>
       <r>     8.4733    13.0283   557.7489 </r>
       <r>     8.7510     8.4698   560.1003 </r>
       <r>     9.0286     8.6461   562.5007 </r>
       <r>     9.3062     5.9303   564.1471 </r>
       <r>     9.5838    10.9953   567.1996 </r>
       <r>     9.8614     1.9976   567.7542 </r>
       <r>    10.1391     3.9353   568.8467 </r>
       <r>    10.4167    10.2799   571.7006 </r>
       <r>    10.6943     4.4932   572.9480 </r>
       <r>    10.9719     7.8207   575.1192 </r>
       <r>    11.2495    13.8881   578.9748 </r>
       <r>    11.5272    12.1684   582.3530 </r>
       <r>    11.8048     4.9994   583.7410 </r>
       <r>    12.0824     9.3002   586.3229 </r>
       <r>    12.3600     7.3155   588.3539 </r>
       <r>    12.6377    12.3632   591.7862 </r>
       <r>    12.9153     6.3287   593.5431 </r>
       <r>    13.1929    15.2056   597.7645 </r>
       <r>    13.4705     6.4096   599.5440 </r>
       <r>    13.7481     6.9557   601.4750 </r>
       <r>    14.0258    10.9799   604.5232 </r>
       <r>    14.3034     7.6011   606.6335 </r>
       <r>    14.5810    10.5611   609.5654 </r>
       <r>    14.8586     8.0776   611.8080 </r>
       <r>    15.1362    16.6446   616.4288 </r>
       <r>    15.4139    17.1247   621.1830 </r>
       <r>    15.6915    10.9210   624.2149 </r>
       <r>    15.9691    14.3478   628.1982 </r>
       <r>    16.2467    11.7569   631.4621 </r>
       <r>    16.5243    10.4179   634.3543 </r>
       <r>    16.8020    13.9632   638.2308 </r>
       <r>    17.0796     7.5819   640.3357 </r>
       <r>    17.3572    11.7289   643.5919 </r>
       <r>    17.6348     6.8904   645.5048 </r>
       <r>    17.9124     1.8150   646.0087 </r>
       <r>    18.1901    -0.0242   646.0020 </r>
       <r>    18.4677    -0.0072   646.0000 </r>
       <r>    18.7453    -0.0000   646.0000 </r>
       <r>    19.0229    -0.0000   646.0000 </r>
       <r>    19.3006     0.0000   646.0000 </r>
       <r>    19.5782     0.0000   646.0000 </r>
       <r>    19.8558     0.0000   646.0000 </r>
       <r>    20.1334     0.0000   646.0000 </r>
       <r>    20.4110     0.0000   646.0000 </r>
       <r>    20.6887     0.0000   646.0000 </r>
       <r>    20.9663     0.0000   646.0000 </r>
       <r>    21.2439     0.0000   646.0000 </r>
       <r>    21.5215     0.0000   646.0000 </r>
      </set>
     </set>
    </array>
   </total>
  </dos>
 </calculation>
 <structure name="finalpos" >
  <crystal>
   <varray name="basis" >
    <v>       0.00000000       7.47300000       7.47300000 </v>
    <v>       7.47300000       0.00000000       7.47300000 </v>
    <v>       7.47300000       7.47300000       0.00000000 </v>
   </varray>
   <i name="volume">    834.67026563 </i>
   <varray name="rec_basis" >
    <v>      -0.06690753       0.06690753       0.06690753 </v>
    <v>       0.06690753      -0.06690753       0.06690753 </v>
    <v>       0.06690753       0.06690753      -0.06690753 </v>
   </varray>
  </crystal>
  <varray name="positions" >
   <v>       0.00200723      -0.00200723      -0.00200723 </v>
   <v>       0.00000000       0.00000000       0.25000000 </v>
   <v>       0.00000000       0.00000000       0.50000000 </v>
   <v>       0.00000000       0.00000000       0.75000000 </v>
   <v>       0.00000000       0.25000000       0.00000000 </v>
   <v>       0.00000000       0.25000000       0.25000000 </v>
   <v>       0.00000000       0.25000000       0.50000000 </v>
   <v>       0.00000000       0.25000000       0.75000000 </v>
   <v>       0.00000000       0.50000000       0.00000000 </v>
   <v>       0.00000000       0.50000000       0.25000000 </v>
   <v>       0.00000000       0.50000000       0.50000000 </v>
   <v>       0.00000000       0.50000000       0.75000000 </v>
   <v>       0.00000000       0.75000000       0.00000000 </v>
   <v>       0.00000000       0.75000000       0.25000000 </v>
   <v>       0.00000000       0.75000000       0.50000000 </v>
   <v>       0.00000000       0.75000000       0.75000000 </v>
   <v>       0.25000000       0.00000000       0.00000000 </v>
   <v>       0.25000000       0.00000000       0.25000000 </v>
   <v>       0.25000000       0.00000000       0.50000000 </v>
   <v>       0.25000000       0.00000000       0.75000000 </v>
   <v>       0.25000000       0.25000000       0.00000000 </v>
   <v>       0.25000000       0.25000000       0.25000000 </v>
   <v>       0.25000000       0.25000000       0.50000000 </v>
   <v>       0.25000000       0.25000000       0.75000000 </v>
   <v>       0.25000000       0.50000000       0.00000000 </v>
   <v>       0.25000000       0.50000000       0.25000000 </v>
   <v>       0.25000000       0.50000000       0.50000000 </v>
   <v>       0.25000000       0.50000000       0.75000000 </v>
   <v>       0.25000000       0.75000000       0.00000000 </v>
   <v>       0.25000000       0.75000000       0.25000000 </v>
   <v>       0.25000000       0.75000000       0.50000000 </v>
   <v>       0.25000000       0.75000000       0.75000000 </v>
   <v>       0.50000000       0.00000000       0.00000000 </v>
   <v>       0.50000000       0.00000000       0.25000000 </v>
   <v>       0.50000000       0.00000000       0.50000000 </v>
   <v>       0.50000000       0.00000000       0.75000000 </v>
   <v>       0.50000000       0.25000000       0.00000000 </v>
   <v>       0.50000000       0.25000000       0.25000000 </v>
   <v>       0.50000000       0.25000000       0.50000000 </v>
   <v>       0.50000000       0.25000000       0.75000000 </v>
   <v>       0.50000000       0.50000000       0.00000000 </v>
   <v>       0.50000000       0.50000000       0.25000000 </v>
   <v>       0.50000000       0.50000000       0.50000000 </v>
   <v>       0.50000000       0.50000000       0.75000000 </v>
   <v>       0.50000000       0.75000000       0.00000000 </v>
   <v>       0.50000000       0.75000000       0.25000000 </v>
   <v>       0.50000000       0.75000000       0.50000000 </v>
   <v>       0.50000000       0.75000000       0.75000000 </v>
   <v>       0.75000000       0.00000000       0.00000000 </v>
   <v>       0.75000000       0.00000000       0.25000000 </v>
   <v>       0.75000000       0.00000000       0.50000000 </v>
   <v>       0.75000000       0.00000000       0.75000000 </v>
   <v>       0.75000000       0.25000000       0.00000000 </v>
   <v>       0.75000000       0.25000000       0.25000000 </v>
   <v>       0.75000000       0.25000000       0.50000000 </v>
   <v>       0.75000000       0.25000000       0.75000000 </v>
   <v>       0.75000000       0.50000000       0.00000000 </v>
   <v>       0.75000000       0.50000000       0.25000000 </v>
   <v>       0.75000000       0.50000000       0.50000000 </v>
   <v>       0.75000000       0.50000000       0.75000000 </v>
   <v>       0.75000000       0.75000000       0.00000000 </v>
   <v>       0.75000000       0.75000000       0.25000000 </v>
   <v>       0.75000000       0.75000000       0.50000000 </v>
   <v>       0.75000000       0.75000000       0.75000000 </v>
  </varray>
 </structure>
</modeling>
