       N       E                     dE             d eps       ncg     rms          rms(c)
DAV:   1     0.150751333276E+05    0.15075E+05   -0.62056E+05 11728   0.209E+03
DAV:   2     0.920645931525E+03   -0.14154E+05   -0.13784E+05 10368   0.681E+02
DAV:   3    -0.336932904659E+03   -0.12576E+04   -0.10457E+04 10584   0.221E+02
DAV:   4    -0.411753461309E+03   -0.74821E+02   -0.72077E+02 11120   0.525E+01
DAV:   5    -0.413095088796E+03   -0.13416E+01   -0.13394E+01 11048   0.699E+00    0.672E+01
DAV:   6    -0.399917085895E+03    0.13178E+02   -0.70766E+02 10840   0.766E+01    0.645E+01
DAV:   7    -0.353649610274E+03    0.46267E+02   -0.17271E+02 10808   0.379E+01    0.608E+00
DAV:   8    -0.353901843032E+03   -0.25223E+00   -0.20101E+00 10872   0.291E+00    0.329E+00
DAV:   9    -0.353819794745E+03    0.82048E-01   -0.35271E-01 11184   0.106E+00    0.852E-01
DAV:  10    -0.353825905520E+03   -0.61108E-02   -0.16448E-02 11784   0.242E-01    0.336E-01
DAV:  11    -0.353828631068E+03   -0.27255E-02   -0.70361E-03 10976   0.199E-01    0.126E-01
DAV:  12    -0.353828845462E+03   -0.21439E-03   -0.71920E-04 11944   0.529E-02    0.291E-02
DAV:  13    -0.353828838623E+03    0.68389E-05   -0.80062E-05 11528   0.219E-02    0.178E-02
DAV:  14    -0.353828825709E+03    0.12914E-04   -0.50469E-06  7960   0.496E-03    0.114E-02
DAV:  15    -0.353828816870E+03    0.88397E-05   -0.43980E-06  8320   0.572E-03    0.813E-04
DAV:  16    -0.353828816950E+03   -0.80734E-07   -0.12530E-07  5448   0.852E-04
   1 F= -.35382882E+03 E0= -.35378040E+03  d E =-.145244E+00  mag=    46.2330
 Linear response reoptimize wavefunctions
DAV:   1    -0.353828817363E+03   -0.41272E-06   -0.18009E-08  5712   0.439E-04
DAV:   2    -0.353828817364E+03   -0.13097E-08   -0.11743E-09  5496   0.174E-04
DAV:   3    -0.353828817364E+03    0.23283E-09    0.12658E-11  5448   0.113E-04
 Linear response DOF=           1
 Linear response progress:
  Degree of freedom:   1/  1
       N       E                     dE             d eps       ncg     rms          rms(c)
