 vasp.5.4.1 05Feb16 (build Oct 12 2016 17:31:35) complex                        
  
 executed on           IFC91_ompi date 2020.09.09  04:44:40
 running on    8 total cores
 distrk:  each k-point on    8 cores,    1 groups
 distr:  one band on NCORES_PER_BAND=   1 cores,    8 groups


--------------------------------------------------------------------------------------------------------


 INCAR:
 POTCAR:   PAW_PBE Ni_pv 06Sep2000                

 ----------------------------------------------------------------------------- 
|                                                                             |
|           W    W    AA    RRRRR   N    N  II  N    N   GGGG   !!!           |
|           W    W   A  A   R    R  NN   N  II  NN   N  G    G  !!!           |
|           W    W  A    A  R    R  N N  N  II  N N  N  G       !!!           |
|           W WW W  AAAAAA  RRRRR   N  N N  II  N  N N  G  GGG   !            |
|           WW  WW  A    A  R   R   N   NN  II  N   NN  G    G                |
|           W    W  A    A  R    R  N    N  II  N    N   GGGG   !!!           |
|                                                                             |
|      For optimal performance we recommend to set                            |
|        NCORE= 4 - approx SQRT( number of cores)                             |
|      NCORE specifies how many cores store one orbital (NPAR=cpu/NCORE).     |
|      This setting can  greatly improve the performance of VASP for DFT.     |
|      The default, NPAR=number of cores might be grossly inefficient         |
|      on modern multi-core architectures or massively parallel machines.     |
|      Do your own testing !!!!                                               |
|      Unfortunately you need to use the default for GW and RPA calculations. |
|      (for HF NCORE is supported but not extensively tested yet)             |
|                                                                             |
 ----------------------------------------------------------------------------- 

 POTCAR:   PAW_PBE Ni_pv 06Sep2000                
  local pseudopotential read in
  partial core-charges read in
  atomic valenz-charges read in
  non local Contribution for L=           1  read in
    real space projection operators read in
  non local Contribution for L=           1  read in
    real space projection operators read in
  non local Contribution for L=           2  read in
    real space projection operators read in
  non local Contribution for L=           2  read in
    real space projection operators read in
  non local Contribution for L=           0  read in
    real space projection operators read in
  non local Contribution for L=           0  read in
    real space projection operators read in
    PAW grid and wavefunctions read in
 
   number of l-projection  operators is LMAX  =           6
   number of lm-projection operators is LMMAX =          18
 

 ----------------------------------------------------------------------------- 
|                                                                             |
|  ADVICE TO THIS USER RUNNING 'VASP/VAMP'   (HEAR YOUR MASTER'S VOICE ...):  |
|                                                                             |
|      You have a (more or less) 'large supercell' and for larger cells       |
|      it might be more efficient to use real space projection operators      |
|      So try LREAL= Auto  in the INCAR   file.                               |
|      Mind: If you want to do a very accurate calculations keep the          |
|      reciprocal projection scheme          (i.e. LREAL=.FALSE.)             |
|                                                                             |
 ----------------------------------------------------------------------------- 

 PAW_PBE Ni_pv 06Sep2000                :
 energy of atom  1       EATOM=-3500.3496
 kinetic energy error for atom=    0.0894 (will be added to EATOM!!)
 
 
 POSCAR: Supercell by Yi Wang                    
  positions in direct lattice
  No initial velocities read in
 exchange correlation table for  LEXCH =        8
   RHO(1)=    0.500       N(1)  =     2000
   RHO(2)=  100.500       N(2)  =     4000
 


--------------------------------------------------------------------------------------------------------


 ion  position               nearest neighbor table
   1  0.000  0.000  0.000-
   2  0.000  0.000  0.250-
   3  0.000  0.000  0.500-
   4  0.000  0.000  0.750-
   5  0.000  0.250  0.000-
   6  0.000  0.250  0.250-
   7  0.000  0.250  0.500-
   8  0.000  0.250  0.750-
   9  0.000  0.500  0.000-
  10  0.000  0.500  0.250-
  11  0.000  0.500  0.500-
  12  0.000  0.500  0.750-
  13  0.000  0.750  0.000-
  14  0.000  0.750  0.250-
  15  0.000  0.750  0.500-
  16  0.000  0.750  0.750-
  17  0.250  0.000  0.000-
  18  0.250  0.000  0.250-
  19  0.250  0.000  0.500-
  20  0.250  0.000  0.750-
  21  0.250  0.250  0.000-
  22  0.250  0.250  0.250-
  23  0.250  0.250  0.500-
  24  0.250  0.250  0.750-
  25  0.250  0.500  0.000-
  26  0.250  0.500  0.250-
  27  0.250  0.500  0.500-
  28  0.250  0.500  0.750-
  29  0.250  0.750  0.000-
  30  0.250  0.750  0.250-
  31  0.250  0.750  0.500-
  32  0.250  0.750  0.750-
  33  0.500  0.000  0.000-
  34  0.500  0.000  0.250-
  35  0.500  0.000  0.500-
  36  0.500  0.000  0.750-
  37  0.500  0.250  0.000-
  38  0.500  0.250  0.250-
  39  0.500  0.250  0.500-
  40  0.500  0.250  0.750-
  41  0.500  0.500  0.000-
  42  0.500  0.500  0.250-
  43  0.500  0.500  0.500-
  44  0.500  0.500  0.750-
  45  0.500  0.750  0.000-
  46  0.500  0.750  0.250-
  47  0.500  0.750  0.500-
  48  0.500  0.750  0.750-
  49  0.750  0.000  0.000-
  50  0.750  0.000  0.250-
  51  0.750  0.000  0.500-
  52  0.750  0.000  0.750-
  53  0.750  0.250  0.000-
  54  0.750  0.250  0.250-
  55  0.750  0.250  0.500-
  56  0.750  0.250  0.750-
  57  0.750  0.500  0.000-
  58  0.750  0.500  0.250-
  59  0.750  0.500  0.500-
  60  0.750  0.500  0.750-
  61  0.750  0.750  0.000-
  62  0.750  0.750  0.250-
  63  0.750  0.750  0.500-
  64  0.750  0.750  0.750-
 
  LATTYP: Found a face centered cubic cell.
 ALAT       =    15.1575000000
  
  Lattice vectors:
  
 A1 = (   0.0000000000,   7.5787500000,   7.5787500000)
 A2 = (   7.5787500000,   0.0000000000,   7.5787500000)
 A3 = (   7.5787500000,   7.5787500000,   0.0000000000)


Analysis of symmetry for initial positions (statically):
=====================================================================
 Subroutine PRICEL returns following result:
 
  LATTYP: Found a face centered cubic cell.
 ALAT       =     3.7893750000
  
  Lattice vectors:
  
 A1 = (   0.0000000000,   1.8946875000,   1.8946875000)
 A2 = (   1.8946875000,   0.0000000000,   1.8946875000)
 A3 = (   1.8946875000,   1.8946875000,   0.0000000000)
 
  64 primitive cells build up your supercell.
 

 Routine SETGRP: Setting up the symmetry group for a 
 face centered cubic supercell.


 Subroutine GETGRP returns: Found 48 space group operations
 (whereof 48 operations were pure point group operations)
 out of a pool of 48 trial point group operations.


The static configuration has the point symmetry O_h .


Analysis of symmetry for dynamics (positions and initial velocities):
=====================================================================
 Subroutine PRICEL returns following result:
 
  LATTYP: Found a face centered cubic cell.
 ALAT       =     3.7893750000
  
  Lattice vectors:
  
 A1 = (   0.0000000000,   1.8946875000,   1.8946875000)
 A2 = (   1.8946875000,   0.0000000000,   1.8946875000)
 A3 = (   1.8946875000,   1.8946875000,   0.0000000000)
 
  64 primitive cells build up your supercell.
 

 Routine SETGRP: Setting up the symmetry group for a 
 face centered cubic supercell.


 Subroutine GETGRP returns: Found 48 space group operations
 (whereof 48 operations were pure point group operations)
 out of a pool of 48 trial point group operations.


The dynamic configuration has the point symmetry O_h .


Analysis of structural, dynamic, and magnetic symmetry:
=====================================================================
 Subroutine PRICEL returns following result:
 
  LATTYP: Found a face centered cubic cell.
 ALAT       =     3.7893750000
  
  Lattice vectors:
  
 A1 = (   0.0000000000,   1.8946875000,   1.8946875000)
 A2 = (   1.8946875000,   0.0000000000,   1.8946875000)
 A3 = (   1.8946875000,   1.8946875000,   0.0000000000)
 
  64 primitive cells build up your supercell.
 

 Routine SETGRP: Setting up the symmetry group for a 
 face centered cubic supercell.


 Subroutine GETGRP returns: Found 48 space group operations
 (whereof 48 operations were pure point group operations)
 out of a pool of 48 trial point group operations.


The magnetic configuration has the point symmetry O_h .


 Subroutine INISYM returns: Found 48 space group operations
 (whereof 48 operations are pure point group operations),
 and found    64 'primitive' translations

 
 
 KPOINTS: Zr 15x15x15                             

Automatic generation of k-mesh.
Space group operators:
 irot       det(A)        alpha          n_x          n_y          n_z        tau_x        tau_y        tau_z
    1     1.000000     0.000001     1.000000     0.000000     0.000000     0.000000     0.000000     0.000000
    2    -1.000000     0.000001     1.000000     0.000000     0.000000     0.000000     0.000000     0.000000
    3     1.000000   120.000000    -0.577350    -0.577350    -0.577350     0.000000     0.000000     0.000000
    4    -1.000000   120.000000    -0.577350    -0.577350    -0.577350     0.000000     0.000000     0.000000
    5     1.000000   120.000000     0.577350     0.577350     0.577350     0.000000     0.000000     0.000000
    6    -1.000000   120.000000     0.577350     0.577350     0.577350     0.000000     0.000000     0.000000
    7     1.000000    90.000000     0.000000     0.000000    -1.000000     0.000000     0.000000     0.000000
    8    -1.000000    90.000000     0.000000     0.000000    -1.000000     0.000000     0.000000     0.000000
    9     1.000000   180.000000     0.000000     0.707107     0.707107     0.000000     0.000000     0.000000
   10    -1.000000   180.000000     0.000000     0.707107     0.707107     0.000000     0.000000     0.000000
   11     1.000000    90.000000     0.000000     1.000000     0.000000     0.000000     0.000000     0.000000
   12    -1.000000    90.000000     0.000000     1.000000     0.000000     0.000000     0.000000     0.000000
   13     1.000000   180.000000     0.000000     0.000000     1.000000     0.000000     0.000000     0.000000
   14    -1.000000   180.000000     0.000000     0.000000     1.000000     0.000000     0.000000     0.000000
   15     1.000000   120.000000    -0.577350     0.577350     0.577350     0.000000     0.000000     0.000000
   16    -1.000000   120.000000    -0.577350     0.577350     0.577350     0.000000     0.000000     0.000000
   17     1.000000   120.000000    -0.577350     0.577350    -0.577350     0.000000     0.000000     0.000000
   18    -1.000000   120.000000    -0.577350     0.577350    -0.577350     0.000000     0.000000     0.000000
   19     1.000000    90.000000     0.000000     0.000000     1.000000     0.000000     0.000000     0.000000
   20    -1.000000    90.000000     0.000000     0.000000     1.000000     0.000000     0.000000     0.000000
   21     1.000000    90.000000    -1.000000     0.000000     0.000000     0.000000     0.000000     0.000000
   22    -1.000000    90.000000    -1.000000     0.000000     0.000000     0.000000     0.000000     0.000000
   23     1.000000   180.000000     0.707107     0.000000     0.707107     0.000000     0.000000     0.000000
   24    -1.000000   180.000000     0.707107     0.000000     0.707107     0.000000     0.000000     0.000000
   25     1.000000   120.000000     0.577350    -0.577350     0.577350     0.000000     0.000000     0.000000
   26    -1.000000   120.000000     0.577350    -0.577350     0.577350     0.000000     0.000000     0.000000
   27     1.000000   120.000000    -0.577350    -0.577350     0.577350     0.000000     0.000000     0.000000
   28    -1.000000   120.000000    -0.577350    -0.577350     0.577350     0.000000     0.000000     0.000000
   29     1.000000   180.000000     1.000000     0.000000     0.000000     0.000000     0.000000     0.000000
   30    -1.000000   180.000000     1.000000     0.000000     0.000000     0.000000     0.000000     0.000000
   31     1.000000    90.000000     0.000000    -1.000000     0.000000     0.000000     0.000000     0.000000
   32    -1.000000    90.000000     0.000000    -1.000000     0.000000     0.000000     0.000000     0.000000
   33     1.000000   180.000000     0.707107     0.707107     0.000000     0.000000     0.000000     0.000000
   34    -1.000000   180.000000     0.707107     0.707107     0.000000     0.000000     0.000000     0.000000
   35     1.000000    90.000000     1.000000     0.000000     0.000000     0.000000     0.000000     0.000000
   36    -1.000000    90.000000     1.000000     0.000000     0.000000     0.000000     0.000000     0.000000
   37     1.000000   120.000000     0.577350    -0.577350    -0.577350     0.000000     0.000000     0.000000
   38    -1.000000   120.000000     0.577350    -0.577350    -0.577350     0.000000     0.000000     0.000000
   39     1.000000   180.000000     0.000000     1.000000     0.000000     0.000000     0.000000     0.000000
   40    -1.000000   180.000000     0.000000     1.000000     0.000000     0.000000     0.000000     0.000000
   41     1.000000   120.000000     0.577350     0.577350    -0.577350     0.000000     0.000000     0.000000
   42    -1.000000   120.000000     0.577350     0.577350    -0.577350     0.000000     0.000000     0.000000
   43     1.000000   180.000000     0.000000    -0.707107     0.707107     0.000000     0.000000     0.000000
   44    -1.000000   180.000000     0.000000    -0.707107     0.707107     0.000000     0.000000     0.000000
   45     1.000000   180.000000     0.707107    -0.707107     0.000000     0.000000     0.000000     0.000000
   46    -1.000000   180.000000     0.707107    -0.707107     0.000000     0.000000     0.000000     0.000000
   47     1.000000   180.000000     0.707107     0.000000    -0.707107     0.000000     0.000000     0.000000
   48    -1.000000   180.000000     0.707107     0.000000    -0.707107     0.000000     0.000000     0.000000
 
 Subroutine IBZKPT returns following result:
 ===========================================
 
 Found      4 irreducible k-points:
 
 Following reciprocal coordinates:
            Coordinates               Weight
  0.000000  0.000000  0.000000      1.000000
  0.333333  0.000000  0.000000      8.000000
  0.333333  0.333333  0.000000      6.000000
 -0.333333  0.333333  0.000000     12.000000
 
 Following cartesian coordinates:
            Coordinates               Weight
  0.000000  0.000000  0.000000      1.000000
 -0.021991  0.021991  0.021991      8.000000
  0.000000  0.000000  0.043983      6.000000
  0.043983 -0.043983  0.000000     12.000000
 
 
 Subroutine IBZKPT_HF returns following result:
 ==============================================
 
 Found     27 k-points in 1st BZ
 the following     27 k-points will be used (e.g. in the exchange kernel)
 Following reciprocal coordinates:   # in IRBZ
  0.000000  0.000000  0.000000    0.03703704   1 t-inv F
  0.333333  0.000000  0.000000    0.03703704   2 t-inv F
  0.333333  0.333333  0.000000    0.03703704   3 t-inv F
 -0.333333  0.333333  0.000000    0.03703704   4 t-inv F
 -0.333333  0.000000  0.000000    0.03703704   2 t-inv F
  0.000000  0.333333  0.000000    0.03703704   2 t-inv F
  0.000000 -0.333333  0.000000    0.03703704   2 t-inv F
  0.000000  0.000000  0.333333    0.03703704   2 t-inv F
  0.000000  0.000000 -0.333333    0.03703704   2 t-inv F
  0.333333  0.333333  0.333333    0.03703704   2 t-inv F
 -0.333333 -0.333333 -0.333333    0.03703704   2 t-inv F
 -0.333333 -0.333333  0.000000    0.03703704   3 t-inv F
  0.000000  0.333333  0.333333    0.03703704   3 t-inv F
  0.000000 -0.333333 -0.333333    0.03703704   3 t-inv F
  0.333333  0.000000  0.333333    0.03703704   3 t-inv F
 -0.333333  0.000000 -0.333333    0.03703704   3 t-inv F
  0.333333 -0.333333  0.000000    0.03703704   4 t-inv F
  0.000000 -0.333333  0.333333    0.03703704   4 t-inv F
  0.000000  0.333333 -0.333333    0.03703704   4 t-inv F
  0.333333  0.000000 -0.333333    0.03703704   4 t-inv F
 -0.333333  0.000000  0.333333    0.03703704   4 t-inv F
  0.333333  0.333333  0.666667    0.03703704   4 t-inv F
 -0.333333 -0.333333 -0.666667    0.03703704   4 t-inv F
 -0.333333 -0.666667 -0.333333    0.03703704   4 t-inv F
  0.333333  0.666667  0.333333    0.03703704   4 t-inv F
 -0.666667 -0.333333 -0.333333    0.03703704   4 t-inv F
  0.666667  0.333333  0.333333    0.03703704   4 t-inv F


--------------------------------------------------------------------------------------------------------




 Dimension of arrays:
   k-points           NKPTS =      4   k-points in BZ     NKDIM =      4   number of bands    NBANDS=    648
   number of dos      NEDOS =    301   number of ions     NIONS =     64
   non local maximal  LDIM  =      6   non local SUM 2l+1 LMDIM =     18
   total plane-waves  NPLWV = 512000
   max r-space proj   IRMAX =      1   max aug-charges    IRDMAX=   6540
   dimension x,y,z NGX =    80 NGY =   80 NGZ =   80
   dimension x,y,z NGXF=   126 NGYF=  126 NGZF=  126
   support grid    NGXF=   126 NGYF=  126 NGZF=  126
   ions per type =              64
 NGX,Y,Z   is equivalent  to a cutoff of  12.41, 12.41, 12.41 a.u.
 NGXF,Y,Z  is equivalent  to a cutoff of  19.54, 19.54, 19.54 a.u.


 I would recommend the setting:
   dimension x,y,z NGX =    75 NGY =   75 NGZ =   75
 SYSTEM =  phonon of Zr bcc - omiga                
 POSCAR =  Supercell by Yi Wang                    

 Startparameter for this run:
   NWRITE =      0    write-flag & timer
   PREC   = h         normal or accurate (medium, high low for compatibility)
   ISTART =      0    job   : 0-new  1-cont  2-samecut
   ICHARG =      2    charge: 1-file 2-atom 10-const
   ISPIN  =      2    spin polarized calculation?
   LNONCOLLINEAR =      F non collinear calculations
   LSORBIT =      F    spin-orbit coupling
   INIWAV =      1    electr: 0-lowe 1-rand  2-diag
   LASPH  =      F    aspherical Exc in radial PAW
   METAGGA=      F    non-selfconsistent MetaGGA calc.

 Electronic Relaxation 1
   ENCUT  =  459.9 eV  33.80 Ry    5.81 a.u.  18.74 18.74 18.74*2*pi/ulx,y,z
   ENINI  =  459.9     initial cutoff
   ENAUG  =  703.4 eV  augmentation charge cutoff
   NELM   =     60;   NELMIN=  2; NELMDL= -5     # of ELM steps 
   EDIFF  = 0.1E-05   stopping-criterion for ELM
   LREAL  =      F    real-space projection
   NLSPLINE    = F    spline interpolate recip. space projectors
   LCOMPAT=      F    compatible to vasp.4.4
   GGA_COMPAT  = T    GGA compatible to vasp.4.4-vasp.4.6
   LMAXPAW     = -100 max onsite density
   LMAXMIX     =    2 max onsite mixed and CHGCAR
   VOSKOWN=      0    Vosko Wilk Nusair interpolation
   ROPT   =    0.00000
 Ionic relaxation
   EDIFFG = 0.1E-04   stopping-criterion for IOM
   NSW    =      1    number of steps for IOM
   NBLOCK =      1;   KBLOCK =      1    inner block; outer block 
   IBRION =      8    ionic relax: 0-MD 1-quasi-New 2-CG
   NFREE  =      0    steps in history (QN), initial steepest desc. (CG)
   ISIF   =      2    stress and relaxation
   IWAVPR =     11    prediction:  0-non 1-charg 2-wave 3-comb
   ISYM   =      2    0-nonsym 1-usesym 2-fastsym
   LCORR  =      T    Harris-Foulkes like correction to forces

   POTIM  = 0.5000    time-step for ionic-motion
   TEIN   =    0.0    initial temperature
   TEBEG  =    0.0;   TEEND  =   0.0 temperature during run
   SMASS  =  -3.00    Nose mass-parameter (am)
   estimated Nose-frequenzy (Omega)   =  0.10E-29 period in steps =****** mass=  -0.263E-26a.u.
   SCALEE = 1.0000    scale energy and forces
   NPACO  =    256;   APACO  = 16.0  distance and # of slots for P.C.
   PSTRESS=    0.0 pullay stress

  Mass of Ions in am
   POMASS =  58.69
  Ionic Valenz
   ZVAL   =  16.00
  Atomic Wigner-Seitz radii
   RWIGS  =  -1.00
  virtual crystal weights 
   VCA    =   1.00
   NELECT =    1024.0000    total number of electrons
   NUPDOWN=      -1.0000    fix difference up-down

 DOS related values:
   EMIN   =  10.00;   EMAX   =-10.00  energy-range for DOS
   EFERMI =   0.00
   ISMEAR =     1;   SIGMA  =   0.20  broadening in eV -4-tet -1-fermi 0-gaus

 Electronic relaxation 2 (details)
   IALGO  =     38    algorithm
   LDIAG  =      T    sub-space diagonalisation (order eigenvalues)
   LSUBROT=      F    optimize rotation matrix (better conditioning)
   TURBO    =      0    0=normal 1=particle mesh
   IRESTART =      0    0=no restart 2=restart with 2 vectors
   NREBOOT  =      0    no. of reboots
   NMIN     =      0    reboot dimension
   EREF     =   0.00    reference energy to select bands
   IMIX   =      4    mixing-type and parameters
     AMIX     =   0.40;   BMIX     =  1.00
     AMIX_MAG =   1.60;   BMIX_MAG =  1.00
     AMIN     =   0.10
     WC   =   100.;   INIMIX=   1;  MIXPRE=   1;  MAXMIX= -45

 Intra band minimization:
   WEIMIN = 0.0010     energy-eigenvalue tresh-hold
   EBREAK =  0.39E-09  absolut break condition
   DEPER  =   0.30     relativ break condition  

   TIME   =   0.40     timestep for ELM

  volume/ion in A,a.u.               =      13.60        91.80
  Fermi-wavevector in a.u.,A,eV,Ry     =   1.728094  3.265623 40.631175  2.986307
  Thomas-Fermi vector in A             =   2.803093
 
 Write flags
   LWAVE  =      T    write WAVECAR
   LCHARG =      T    write CHGCAR
   LVTOT  =      F    write LOCPOT, total local potential
   LVHAR  =      F    write LOCPOT, Hartree potential only
   LELF   =      F    write electronic localiz. function (ELF)
   LORBIT =      0    0 simple, 1 ext, 2 COOP (PROOUT)


 Dipole corrections
   LMONO  =      F    monopole corrections only (constant potential shift)
   LDIPOL =      F    correct potential (dipole corrections)
   IDIPOL =      0    1-x, 2-y, 3-z, 4-all directions 
   EPSILON=  1.0000000 bulk dielectric constant

 Exchange correlation treatment:
   GGA     =    --    GGA type
   LEXCH   =     8    internal setting for exchange type
   VOSKOWN=      0    Vosko Wilk Nusair interpolation
   LHFCALC =     F    Hartree Fock is set to
   LHFONE  =     F    Hartree Fock one center treatment
   AEXX    =    0.0000 exact exchange contribution

 Linear response parameters
   LEPSILON=     F    determine dielectric tensor
   LRPA    =     F    only Hartree local field effects (RPA)
   LNABLA  =     F    use nabla operator in PAW spheres
   LVEL    =     F    velocity operator in full k-point grid
   LINTERFAST=   F  fast interpolation
   KINTER  =     0    interpolate to denser k-point grid
   CSHIFT  =0.1000    complex shift for real part using Kramers Kronig
   OMEGAMAX=  -1.0    maximum frequency
   DEG_THRESHOLD= 0.2000000E-02 threshold for treating states as degnerate
   RTIME   =    0.100 relaxation time in fs

 Orbital magnetization related:
   ORBITALMAG=     F  switch on orbital magnetization
   LCHIMAG   =     F  perturbation theory with respect to B field
   DQ        =  0.001000  dq finite difference perturbation B field



--------------------------------------------------------------------------------------------------------


 linear response using symmetry
 charge density and potential will be updated during run
 spin polarized calculation
 Variant of blocked Davidson
 Davidson routine will perform the subspace rotation
 perform sub-space diagonalisation
    after iterative eigenvector-optimisation
 modified Broyden-mixing scheme, WC =      100.0
 initial mixing is a Kerker type mixing with AMIX =  0.4000 and BMIX =      1.0000
 Hartree-type preconditioning will be used
 using additional bands          136
 reciprocal scheme for non local part
 use partial core corrections
 calculate Harris-corrections to forces 
   (improved forces if not selfconsistent)
 use gradient corrections 
 use of overlap-Matrix (Vanderbilt PP)
 Methfessel and Paxton  Order N= 1 SIGMA  =   0.20


--------------------------------------------------------------------------------------------------------


  energy-cutoff  :      459.93
  volume of cell :      870.61
      direct lattice vectors                 reciprocal lattice vectors
     0.000000000  7.578750000  7.578750000    -0.065973940  0.065973940  0.065973940
     7.578750000  0.000000000  7.578750000     0.065973940 -0.065973940  0.065973940
     7.578750000  7.578750000  0.000000000     0.065973940  0.065973940 -0.065973940

  length of vectors
    10.717971036 10.717971036 10.717971036     0.114270217  0.114270217  0.114270217


 
 k-points in units of 2pi/SCALE and weight: Zr 15x15x15                             
   0.00000000  0.00000000  0.00000000       0.037
  -0.02199131  0.02199131  0.02199131       0.296
   0.00000000  0.00000000  0.04398263       0.222
   0.04398263 -0.04398263  0.00000000       0.444
 
 k-points in reciprocal lattice and weights: Zr 15x15x15                             
   0.00000000  0.00000000  0.00000000       0.037
   0.33333333  0.00000000  0.00000000       0.296
   0.33333333  0.33333333  0.00000000       0.222
  -0.33333333  0.33333333  0.00000000       0.444
 
 position of ions in fractional coordinates (direct lattice) 
   0.00000000  0.00000000  0.00000000
   0.00000000  0.00000000  0.25000000
   0.00000000  0.00000000  0.50000000
   0.00000000  0.00000000  0.75000000
   0.00000000  0.25000000  0.00000000
   0.00000000  0.25000000  0.25000000
   0.00000000  0.25000000  0.50000000
   0.00000000  0.25000000  0.75000000
   0.00000000  0.50000000  0.00000000
   0.00000000  0.50000000  0.25000000
   0.00000000  0.50000000  0.50000000
   0.00000000  0.50000000  0.75000000
   0.00000000  0.75000000  0.00000000
   0.00000000  0.75000000  0.25000000
   0.00000000  0.75000000  0.50000000
   0.00000000  0.75000000  0.75000000
   0.25000000  0.00000000  0.00000000
   0.25000000  0.00000000  0.25000000
   0.25000000  0.00000000  0.50000000
   0.25000000  0.00000000  0.75000000
   0.25000000  0.25000000  0.00000000
   0.25000000  0.25000000  0.25000000
   0.25000000  0.25000000  0.50000000
   0.25000000  0.25000000  0.75000000
   0.25000000  0.50000000  0.00000000
   0.25000000  0.50000000  0.25000000
   0.25000000  0.50000000  0.50000000
   0.25000000  0.50000000  0.75000000
   0.25000000  0.75000000  0.00000000
   0.25000000  0.75000000  0.25000000
   0.25000000  0.75000000  0.50000000
   0.25000000  0.75000000  0.75000000
   0.50000000  0.00000000  0.00000000
   0.50000000  0.00000000  0.25000000
   0.50000000  0.00000000  0.50000000
   0.50000000  0.00000000  0.75000000
   0.50000000  0.25000000  0.00000000
   0.50000000  0.25000000  0.25000000
   0.50000000  0.25000000  0.50000000
   0.50000000  0.25000000  0.75000000
   0.50000000  0.50000000  0.00000000
   0.50000000  0.50000000  0.25000000
   0.50000000  0.50000000  0.50000000
   0.50000000  0.50000000  0.75000000
   0.50000000  0.75000000  0.00000000
   0.50000000  0.75000000  0.25000000
   0.50000000  0.75000000  0.50000000
   0.50000000  0.75000000  0.75000000
   0.75000000  0.00000000  0.00000000
   0.75000000  0.00000000  0.25000000
   0.75000000  0.00000000  0.50000000
   0.75000000  0.00000000  0.75000000
   0.75000000  0.25000000  0.00000000
   0.75000000  0.25000000  0.25000000
   0.75000000  0.25000000  0.50000000
   0.75000000  0.25000000  0.75000000
   0.75000000  0.50000000  0.00000000
   0.75000000  0.50000000  0.25000000
   0.75000000  0.50000000  0.50000000
   0.75000000  0.50000000  0.75000000
   0.75000000  0.75000000  0.00000000
   0.75000000  0.75000000  0.25000000
   0.75000000  0.75000000  0.50000000
   0.75000000  0.75000000  0.75000000
 
 position of ions in cartesian coordinates  (Angst):
   0.00000000  0.00000000  0.00000000
   1.89468750  1.89468750  0.00000000
   3.78937500  3.78937500  0.00000000
   5.68406250  5.68406250  0.00000000
   1.89468750  0.00000000  1.89468750
   3.78937500  1.89468750  1.89468750
   5.68406250  3.78937500  1.89468750
   7.57875000  5.68406250  1.89468750
   3.78937500  0.00000000  3.78937500
   5.68406250  1.89468750  3.78937500
   7.57875000  3.78937500  3.78937500
   9.47343750  5.68406250  3.78937500
   5.68406250  0.00000000  5.68406250
   7.57875000  1.89468750  5.68406250
   9.47343750  3.78937500  5.68406250
  11.36812500  5.68406250  5.68406250
   0.00000000  1.89468750  1.89468750
   1.89468750  3.78937500  1.89468750
   3.78937500  5.68406250  1.89468750
   5.68406250  7.57875000  1.89468750
   1.89468750  1.89468750  3.78937500
   3.78937500  3.78937500  3.78937500
   5.68406250  5.68406250  3.78937500
   7.57875000  7.57875000  3.78937500
   3.78937500  1.89468750  5.68406250
   5.68406250  3.78937500  5.68406250
   7.57875000  5.68406250  5.68406250
   9.47343750  7.57875000  5.68406250
   5.68406250  1.89468750  7.57875000
   7.57875000  3.78937500  7.57875000
   9.47343750  5.68406250  7.57875000
  11.36812500  7.57875000  7.57875000
   0.00000000  3.78937500  3.78937500
   1.89468750  5.68406250  3.78937500
   3.78937500  7.57875000  3.78937500
   5.68406250  9.47343750  3.78937500
   1.89468750  3.78937500  5.68406250
   3.78937500  5.68406250  5.68406250
   5.68406250  7.57875000  5.68406250
   7.57875000  9.47343750  5.68406250
   3.78937500  3.78937500  7.57875000
   5.68406250  5.68406250  7.57875000
   7.57875000  7.57875000  7.57875000
   9.47343750  9.47343750  7.57875000
   5.68406250  3.78937500  9.47343750
   7.57875000  5.68406250  9.47343750
   9.47343750  7.57875000  9.47343750
  11.36812500  9.47343750  9.47343750
   0.00000000  5.68406250  5.68406250
   1.89468750  7.57875000  5.68406250
   3.78937500  9.47343750  5.68406250
   5.68406250 11.36812500  5.68406250
   1.89468750  5.68406250  7.57875000
   3.78937500  7.57875000  7.57875000
   5.68406250  9.47343750  7.57875000
   7.57875000 11.36812500  7.57875000
   3.78937500  5.68406250  9.47343750
   5.68406250  7.57875000  9.47343750
   7.57875000  9.47343750  9.47343750
   9.47343750 11.36812500  9.47343750
   5.68406250  5.68406250 11.36812500
   7.57875000  7.57875000 11.36812500
   9.47343750  9.47343750 11.36812500
  11.36812500 11.36812500 11.36812500
 


--------------------------------------------------------------------------------------------------------


 k-point  1 :   0.0000 0.0000 0.0000  plane waves:   19579
 k-point  2 :   0.3333 0.0000 0.0000  plane waves:   19497
 k-point  3 :   0.3333 0.3333 0.0000  plane waves:   19454
 k-point  4 :  -0.3333 0.3333 0.0000  plane waves:   19495

 maximum and minimum number of plane-waves per node :     19579    19454

 maximum number of plane-waves:     19579
 maximum index in each direction: 
   IXMAX=   19   IYMAX=   18   IZMAX=   18
   IXMIN=  -19   IYMIN=  -19   IZMIN=  -18

 NGX is ok and might be reduce to  78
 NGY is ok and might be reduce to  76
 NGZ is ok and might be reduce to  74

 serial   3D FFT for wavefunctions
 parallel 3D FFT for charge:
    minimum data exchange during FFTs selected (reduces bandwidth)


 total amount of memory used by VASP on root node   349103. kBytes
========================================================================

   base      :      30000. kBytes
   nonl-proj :      31334. kBytes
   fftplans  :      11110. kBytes
   grid      :      59679. kBytes
   one-center:       1990. kBytes
   wavefun   :     214990. kBytes
 
     INWAV:  cpu time    0.0000: real time    0.0015
 Broyden mixing: mesh for mixing (old mesh)
   NGX = 37   NGY = 37   NGZ = 37
  (NGX  =126   NGY  =126   NGZ  =126)
  gives a total of  50653 points

 initial charge density was supplied:
 charge density of overlapping atoms calculated
 number of electron    1024.0000000 magnetization      64.0000000
 keeping initial charge density in first step


--------------------------------------------------------------------------------------------------------


 Maximum index for augmentation-charges          879 (set IRDMAX)


--------------------------------------------------------------------------------------------------------


 First call to EWALD:  gamma=   0.186
 Maximum number of real-space cells 3x 3x 3
 Maximum number of reciprocal cells 3x 3x 3

 FEWALD executed in parallel
    FEWALD:  cpu time    0.0050: real time    0.0075


----------------------------------------- Iteration    1(   1)  ---------------------------------------


    POTLOK:  cpu time    0.3349: real time    0.6628
    SETDIJ:  cpu time    0.0480: real time    0.1106
     EDDAV:  cpu time  168.0215: real time  335.2094
       DOS:  cpu time    0.0040: real time    0.0288
    --------------------------------------------
      LOOP:  cpu time  168.4094: real time  336.0176

 eigenvalue-minimisations  : 11728
 total energy-change (2. order) : 0.1507513E+05  (-0.6205614E+05)
 number of electron    1024.0000000 magnetization      64.0000000
 augmentation part     1024.0000000 magnetization      64.0000000

 Free energy of the ion-electron system (eV)
  ---------------------------------------------------
  alpha Z        PSCENC =      7925.72117195
  Ewald energy   TEWEN  =   -142726.55438447
  -Hartree energ DENC   =    -68446.41764855
  -exchange      EXHF   =         0.00000000
  -V(xc)+E(xc)   XCENC  =      5673.78292775
  PAW double counting   =    172361.15642774  -181272.45834873
  entropy T*S    EENTRO =         0.01069639
  eigenvalues    EBANDS =     -2456.75968095
  atomic energy  EATOM  =    224016.65216645
  Solvation  Ediel_sol  =         0.00000000
  ---------------------------------------------------
  free energy    TOTEN  =     15075.13332759 eV

  energy without entropy =    15075.12263120  energy(sigma->0) =    15075.12976213


--------------------------------------------------------------------------------------------------------




----------------------------------------- Iteration    1(   2)  ---------------------------------------


     EDDAV:  cpu time  164.8149: real time  325.5204
       DOS:  cpu time    0.0040: real time    0.0392
    --------------------------------------------
      LOOP:  cpu time  164.8189: real time  325.5606

 eigenvalue-minimisations  : 10368
 total energy-change (2. order) :-0.1415449E+05  (-0.1378404E+05)
 number of electron    1024.0000000 magnetization      64.0000000
 augmentation part     1024.0000000 magnetization      64.0000000

 Free energy of the ion-electron system (eV)
  ---------------------------------------------------
  alpha Z        PSCENC =      7925.72117195
  Ewald energy   TEWEN  =   -142726.55438447
  -Hartree energ DENC   =    -68446.41764855
  -exchange      EXHF   =         0.00000000
  -V(xc)+E(xc)   XCENC  =      5673.78292775
  PAW double counting   =    172361.15642774  -181272.45834873
  entropy T*S    EENTRO =        -0.02618825
  eigenvalues    EBANDS =    -16611.21019238
  atomic energy  EATOM  =    224016.65216645
  Solvation  Ediel_sol  =         0.00000000
  ---------------------------------------------------
  free energy    TOTEN  =       920.64593152 eV

  energy without entropy =      920.67211978  energy(sigma->0) =      920.65466094


--------------------------------------------------------------------------------------------------------




----------------------------------------- Iteration    1(   3)  ---------------------------------------


     EDDAV:  cpu time  167.4935: real time  334.3394
       DOS:  cpu time    0.0030: real time    0.0175
    --------------------------------------------
      LOOP:  cpu time  167.4975: real time  334.3576

 eigenvalue-minimisations  : 10584
 total energy-change (2. order) :-0.1257579E+04  (-0.1045748E+04)
 number of electron    1024.0000000 magnetization      64.0000000
 augmentation part     1024.0000000 magnetization      64.0000000

 Free energy of the ion-electron system (eV)
  ---------------------------------------------------
  alpha Z        PSCENC =      7925.72117195
  Ewald energy   TEWEN  =   -142726.55438447
  -Hartree energ DENC   =    -68446.41764855
  -exchange      EXHF   =         0.00000000
  -V(xc)+E(xc)   XCENC  =      5673.78292775
  PAW double counting   =    172361.15642774  -181272.45834873
  entropy T*S    EENTRO =         0.12996904
  eigenvalues    EBANDS =    -17868.94518586
  atomic energy  EATOM  =    224016.65216645
  Solvation  Ediel_sol  =         0.00000000
  ---------------------------------------------------
  free energy    TOTEN  =      -336.93290466 eV

  energy without entropy =     -337.06287370  energy(sigma->0) =     -336.97622767


--------------------------------------------------------------------------------------------------------




----------------------------------------- Iteration    1(   4)  ---------------------------------------


     EDDAV:  cpu time  162.6673: real time  320.5402
       DOS:  cpu time    0.0040: real time    0.0311
    --------------------------------------------
      LOOP:  cpu time  162.6723: real time  320.5718

 eigenvalue-minimisations  : 11120
 total energy-change (2. order) :-0.7482056E+02  (-0.7207749E+02)
 number of electron    1024.0000000 magnetization      64.0000000
 augmentation part     1024.0000000 magnetization      64.0000000

 Free energy of the ion-electron system (eV)
  ---------------------------------------------------
  alpha Z        PSCENC =      7925.72117195
  Ewald energy   TEWEN  =   -142726.55438447
  -Hartree energ DENC   =    -68446.41764855
  -exchange      EXHF   =         0.00000000
  -V(xc)+E(xc)   XCENC  =      5673.78292775
  PAW double counting   =    172361.15642774  -181272.45834873
  entropy T*S    EENTRO =         0.14153509
  eigenvalues    EBANDS =    -17943.77730856
  atomic energy  EATOM  =    224016.65216645
  Solvation  Ediel_sol  =         0.00000000
  ---------------------------------------------------
  free energy    TOTEN  =      -411.75346131 eV

  energy without entropy =     -411.89499640  energy(sigma->0) =     -411.80063967


--------------------------------------------------------------------------------------------------------




----------------------------------------- Iteration    1(   5)  ---------------------------------------


     EDDAV:  cpu time  174.3665: real time  344.6363
       DOS:  cpu time    0.0030: real time    0.0308
    CHARGE:  cpu time    7.7238: real time   15.4355
    MIXING:  cpu time    0.0070: real time    0.0189
    --------------------------------------------
      LOOP:  cpu time  182.1003: real time  360.1225

 eigenvalue-minimisations  : 11048
 total energy-change (2. order) :-0.1341627E+01  (-0.1339371E+01)
 number of electron    1023.9999801 magnetization      59.8355125
 augmentation part      572.9491327 magnetization      47.4301755

 Broyden mixing:
  rms(total) = 0.67230E+01    rms(broyden)= 0.67194E+01
  rms(prec ) = 0.90128E+01
  weight for this iteration     100.00

 Free energy of the ion-electron system (eV)
  ---------------------------------------------------
  alpha Z        PSCENC =      7925.72117195
  Ewald energy   TEWEN  =   -142726.55438447
  -Hartree energ DENC   =    -68446.41764855
  -exchange      EXHF   =         0.00000000
  -V(xc)+E(xc)   XCENC  =      5673.78292775
  PAW double counting   =    172361.15642774  -181272.45834873
  entropy T*S    EENTRO =         0.14222567
  eigenvalues    EBANDS =    -17945.11962662
  atomic energy  EATOM  =    224016.65216645
  Solvation  Ediel_sol  =         0.00000000
  ---------------------------------------------------
  free energy    TOTEN  =      -413.09508880 eV

  energy without entropy =     -413.23731446  energy(sigma->0) =     -413.14249735


--------------------------------------------------------------------------------------------------------




----------------------------------------- Iteration    1(   6)  ---------------------------------------


    POTLOK:  cpu time    0.3220: real time    0.6360
    SETDIJ:  cpu time    0.0480: real time    0.1126
     EDDAV:  cpu time  158.1890: real time  315.6895
       DOS:  cpu time    0.0030: real time    0.0241
    CHARGE:  cpu time    7.1019: real time   14.1626
    MIXING:  cpu time    0.0070: real time    0.0257
    --------------------------------------------
      LOOP:  cpu time  165.6718: real time  330.6575

 eigenvalue-minimisations  : 10840
 total energy-change (2. order) : 0.1317800E+02  (-0.7076576E+02)
 number of electron    1023.9999776 magnetization      53.7880836
 augmentation part      638.8332029 magnetization      48.6292414

 Broyden mixing:
  rms(total) = 0.64499E+01    rms(broyden)= 0.64492E+01
  rms(prec ) = 0.80387E+01
  weight for this iteration     100.00

 eigenvalues of (default mixing * dielectric matrix)
  average eigenvalue GAMMA=   0.4852
  0.4852

 Free energy of the ion-electron system (eV)
  ---------------------------------------------------
  alpha Z        PSCENC =      7925.72117195
  Ewald energy   TEWEN  =   -142726.55438447
  -Hartree energ DENC   =    -65019.73449263
  -exchange      EXHF   =         0.00000000
  -V(xc)+E(xc)   XCENC  =      5546.37979535
  PAW double counting   =    166635.88753363  -175213.75371038
  entropy T*S    EENTRO =        -0.55018878
  eigenvalues    EBANDS =    -21563.96497702
  atomic energy  EATOM  =    224016.65216645
  Solvation  Ediel_sol  =         0.00000000
  ---------------------------------------------------
  free energy    TOTEN  =      -399.91708589 eV

  energy without entropy =     -399.36689712  energy(sigma->0) =     -399.73368963


--------------------------------------------------------------------------------------------------------




----------------------------------------- Iteration    1(   7)  ---------------------------------------


    POTLOK:  cpu time    0.3210: real time    0.6336
    SETDIJ:  cpu time    0.0480: real time    0.1096
     EDDAV:  cpu time  169.8702: real time  335.8644
       DOS:  cpu time    0.0030: real time    0.0374
    CHARGE:  cpu time    7.3569: real time   14.6653
    MIXING:  cpu time    0.0090: real time    0.0247
    --------------------------------------------
      LOOP:  cpu time  177.6090: real time  351.3358

 eigenvalue-minimisations  : 10808
 total energy-change (2. order) : 0.4626748E+02  (-0.1727119E+02)
 number of electron    1023.9999788 magnetization      49.5075006
 augmentation part      607.7100306 magnetization      40.4389478

 Broyden mixing:
  rms(total) = 0.60795E+00    rms(broyden)= 0.60667E+00
  rms(prec ) = 0.69020E+00
  weight for this iteration     100.00

 eigenvalues of (default mixing * dielectric matrix)
  average eigenvalue GAMMA=   0.6842
  0.8337  0.5347

 Free energy of the ion-electron system (eV)
  ---------------------------------------------------
  alpha Z        PSCENC =      7925.72117195
  Ewald energy   TEWEN  =   -142726.55438447
  -Hartree energ DENC   =    -66454.23983406
  -exchange      EXHF   =         0.00000000
  -V(xc)+E(xc)   XCENC  =      5599.11543996
  PAW double counting   =    169392.53246658  -178263.00100234
  entropy T*S    EENTRO =        -0.16146580
  eigenvalues    EBANDS =    -19843.71416855
  atomic energy  EATOM  =    224016.65216645
  Solvation  Ediel_sol  =         0.00000000
  ---------------------------------------------------
  free energy    TOTEN  =      -353.64961027 eV

  energy without entropy =     -353.48814447  energy(sigma->0) =     -353.59578834


--------------------------------------------------------------------------------------------------------




----------------------------------------- Iteration    1(   8)  ---------------------------------------


    POTLOK:  cpu time    0.3200: real time    0.6221
    SETDIJ:  cpu time    0.0480: real time    0.1173
     EDDAV:  cpu time  174.5005: real time  344.6548
       DOS:  cpu time    0.0040: real time    0.0308
    CHARGE:  cpu time    7.3209: real time   14.5995
    MIXING:  cpu time    0.0090: real time    0.0269
    --------------------------------------------
      LOOP:  cpu time  182.2023: real time  360.0589

 eigenvalue-minimisations  : 10872
 total energy-change (2. order) :-0.2522328E+00  (-0.2010110E+00)
 number of electron    1023.9999788 magnetization      45.8375161
 augmentation part      606.6523093 magnetization      38.2184933

 Broyden mixing:
  rms(total) = 0.32927E+00    rms(broyden)= 0.32912E+00
  rms(prec ) = 0.42871E+00
  weight for this iteration     100.00

 eigenvalues of (default mixing * dielectric matrix)
  average eigenvalue GAMMA=   1.0899
  0.5388  0.8491  1.8816

 Free energy of the ion-electron system (eV)
  ---------------------------------------------------
  alpha Z        PSCENC =      7925.72117195
  Ewald energy   TEWEN  =   -142726.55438447
  -Hartree energ DENC   =    -66376.62335072
  -exchange      EXHF   =         0.00000000
  -V(xc)+E(xc)   XCENC  =      5597.50075193
  PAW double counting   =    169634.72054931  -178586.31958959
  entropy T*S    EENTRO =        -0.14369163
  eigenvalues    EBANDS =    -19838.85546626
  atomic energy  EATOM  =    224016.65216645
  Solvation  Ediel_sol  =         0.00000000
  ---------------------------------------------------
  free energy    TOTEN  =      -353.90184303 eV

  energy without entropy =     -353.75815140  energy(sigma->0) =     -353.85394582


--------------------------------------------------------------------------------------------------------




----------------------------------------- Iteration    1(   9)  ---------------------------------------


    POTLOK:  cpu time    0.3210: real time    0.6255
    SETDIJ:  cpu time    0.0480: real time    0.1145
     EDDAV:  cpu time  162.4683: real time  324.2159
       DOS:  cpu time    0.0030: real time    0.0377
    CHARGE:  cpu time    7.4529: real time   14.8585
    MIXING:  cpu time    0.0100: real time    0.0264
    --------------------------------------------
      LOOP:  cpu time  170.3031: real time  339.8828

 eigenvalue-minimisations  : 11184
 total energy-change (2. order) : 0.8204829E-01  (-0.3527120E-01)
 number of electron    1023.9999788 magnetization      45.8052741
 augmentation part      607.6186071 magnetization      39.4687771

 Broyden mixing:
  rms(total) = 0.85205E-01    rms(broyden)= 0.85170E-01
  rms(prec ) = 0.88266E-01
  weight for this iteration     100.00

 eigenvalues of (default mixing * dielectric matrix)
  average eigenvalue GAMMA=   1.0883
  2.2829  0.9012  0.5453  0.6237

 Free energy of the ion-electron system (eV)
  ---------------------------------------------------
  alpha Z        PSCENC =      7925.72117195
  Ewald energy   TEWEN  =   -142726.55438447
  -Hartree energ DENC   =    -66216.41019602
  -exchange      EXHF   =         0.00000000
  -V(xc)+E(xc)   XCENC  =      5592.81660830
  PAW double counting   =    169794.34333766  -178815.72712034
  entropy T*S    EENTRO =        -0.14594697
  eigenvalues    EBANDS =    -19924.51543131
  atomic energy  EATOM  =    224016.65216645
  Solvation  Ediel_sol  =         0.00000000
  ---------------------------------------------------
  free energy    TOTEN  =      -353.81979475 eV

  energy without entropy =     -353.67384778  energy(sigma->0) =     -353.77114576


--------------------------------------------------------------------------------------------------------




----------------------------------------- Iteration    1(  10)  ---------------------------------------


    POTLOK:  cpu time    0.3210: real time    0.6304
    SETDIJ:  cpu time    0.0490: real time    0.1188
     EDDAV:  cpu time  180.0826: real time  355.6993
       DOS:  cpu time    0.0040: real time    0.0317
    CHARGE:  cpu time    7.7078: real time   15.0360
    MIXING:  cpu time    0.0110: real time    0.0273
    --------------------------------------------
      LOOP:  cpu time  188.1754: real time  371.5445

 eigenvalue-minimisations  : 11784
 total energy-change (2. order) :-0.6110774E-02  (-0.1644849E-02)
 number of electron    1023.9999788 magnetization      46.1244508
 augmentation part      607.5901280 magnetization      39.7572731

 Broyden mixing:
  rms(total) = 0.33644E-01    rms(broyden)= 0.33621E-01
  rms(prec ) = 0.37339E-01
  weight for this iteration     100.00

 eigenvalues of (default mixing * dielectric matrix)
  average eigenvalue GAMMA=   1.1100
  2.3164  1.0342  1.0342  0.5410  0.6241

 Free energy of the ion-electron system (eV)
  ---------------------------------------------------
  alpha Z        PSCENC =      7925.72117195
  Ewald energy   TEWEN  =   -142726.55438447
  -Hartree energ DENC   =    -66209.81933545
  -exchange      EXHF   =         0.00000000
  -V(xc)+E(xc)   XCENC  =      5592.69670746
  PAW double counting   =    169859.27631860  -178886.29323074
  entropy T*S    EENTRO =        -0.14472424
  eigenvalues    EBANDS =    -19925.36059508
  atomic energy  EATOM  =    224016.65216645
  Solvation  Ediel_sol  =         0.00000000
  ---------------------------------------------------
  free energy    TOTEN  =      -353.82590552 eV

  energy without entropy =     -353.68118128  energy(sigma->0) =     -353.77766411


--------------------------------------------------------------------------------------------------------




----------------------------------------- Iteration    1(  11)  ---------------------------------------


    POTLOK:  cpu time    0.3190: real time    0.6214
    SETDIJ:  cpu time    0.0490: real time    0.1127
     EDDAV:  cpu time  170.1661: real time  339.8228
       DOS:  cpu time    0.0030: real time    0.0138
    CHARGE:  cpu time   10.4674: real time   20.9139
    MIXING:  cpu time    0.1280: real time    0.2538
    --------------------------------------------
      LOOP:  cpu time  181.1325: real time  361.7489

 eigenvalue-minimisations  : 10976
 total energy-change (2. order) :-0.2725548E-02  (-0.7036138E-03)
 number of electron    1023.9999788 magnetization      46.2444938
 augmentation part      607.4478993 magnetization      39.7464975

 Broyden mixing:
  rms(total) = 0.12576E-01    rms(broyden)= 0.12545E-01
  rms(prec ) = 0.15070E-01
  weight for this iteration     100.00

 eigenvalues of (default mixing * dielectric matrix)
  average eigenvalue GAMMA=   1.1914
  2.4061  1.8721  0.9537  0.5392  0.7407  0.6368

 Free energy of the ion-electron system (eV)
  ---------------------------------------------------
  alpha Z        PSCENC =      7925.72117195
  Ewald energy   TEWEN  =   -142726.55438447
  -Hartree energ DENC   =    -66216.75540457
  -exchange      EXHF   =         0.00000000
  -V(xc)+E(xc)   XCENC  =      5592.93908903
  PAW double counting   =    169941.39216058  -178968.73229635
  entropy T*S    EENTRO =        -0.14396575
  eigenvalues    EBANDS =    -19918.34716794
  atomic energy  EATOM  =    224016.65216645
  Solvation  Ediel_sol  =         0.00000000
  ---------------------------------------------------
  free energy    TOTEN  =      -353.82863107 eV

  energy without entropy =     -353.68466531  energy(sigma->0) =     -353.78064248


--------------------------------------------------------------------------------------------------------




----------------------------------------- Iteration    1(  12)  ---------------------------------------


    POTLOK:  cpu time    0.3649: real time    0.7008
    SETDIJ:  cpu time    0.0480: real time    0.1263
     EDDAV:  cpu time  171.4809: real time  338.5799
       DOS:  cpu time    0.0040: real time    0.0340
    CHARGE:  cpu time    7.4389: real time   14.8381
    MIXING:  cpu time    0.0110: real time    0.0298
    --------------------------------------------
      LOOP:  cpu time  179.3697: real time  354.3643

 eigenvalue-minimisations  : 11944
 total energy-change (2. order) :-0.2143942E-03  (-0.7191988E-04)
 number of electron    1023.9999788 magnetization      46.2428228
 augmentation part      607.4881026 magnetization      39.7018920

 Broyden mixing:
  rms(total) = 0.29082E-02    rms(broyden)= 0.29028E-02
  rms(prec ) = 0.33075E-02
  weight for this iteration     100.00

 eigenvalues of (default mixing * dielectric matrix)
  average eigenvalue GAMMA=   1.1916
  2.4713  2.0353  0.5399  0.9457  0.9457  0.6267  0.7767

 Free energy of the ion-electron system (eV)
  ---------------------------------------------------
  alpha Z        PSCENC =      7925.72117195
  Ewald energy   TEWEN  =   -142726.55438447
  -Hartree energ DENC   =    -66215.00125016
  -exchange      EXHF   =         0.00000000
  -V(xc)+E(xc)   XCENC  =      5592.86683927
  PAW double counting   =    169975.41287384  -179002.12719332
  entropy T*S    EENTRO =        -0.14516204
  eigenvalues    EBANDS =    -19920.65390699
  atomic energy  EATOM  =    224016.65216645
  Solvation  Ediel_sol  =         0.00000000
  ---------------------------------------------------
  free energy    TOTEN  =      -353.82884546 eV

  energy without entropy =     -353.68368342  energy(sigma->0) =     -353.78045812


--------------------------------------------------------------------------------------------------------




----------------------------------------- Iteration    1(  13)  ---------------------------------------


    POTLOK:  cpu time    0.3220: real time    0.6314
    SETDIJ:  cpu time    0.0490: real time    0.1145
     EDDAV:  cpu time  182.6392: real time  360.7563
       DOS:  cpu time    0.0040: real time    0.0336
    CHARGE:  cpu time    7.3419: real time   14.6408
    MIXING:  cpu time    0.0120: real time    0.0393
    --------------------------------------------
      LOOP:  cpu time  190.3681: real time  376.2168

 eigenvalue-minimisations  : 11528
 total energy-change (2. order) : 0.6838876E-05  (-0.8006202E-05)
 number of electron    1023.9999788 magnetization      46.2352610
 augmentation part      607.5069172 magnetization      39.6969529

 Broyden mixing:
  rms(total) = 0.17826E-02    rms(broyden)= 0.17818E-02
  rms(prec ) = 0.22705E-02
  weight for this iteration     100.00

 eigenvalues of (default mixing * dielectric matrix)
  average eigenvalue GAMMA=   1.2153
  2.4505  2.0420  1.5674  0.9796  0.5401  0.6230  0.7599  0.7599

 Free energy of the ion-electron system (eV)
  ---------------------------------------------------
  alpha Z        PSCENC =      7925.72117195
  Ewald energy   TEWEN  =   -142726.55438447
  -Hartree energ DENC   =    -66214.49628763
  -exchange      EXHF   =         0.00000000
  -V(xc)+E(xc)   XCENC  =      5592.84950167
  PAW double counting   =    169981.04700662  -179007.27685834
  entropy T*S    EENTRO =        -0.14536893
  eigenvalues    EBANDS =    -19921.62578594
  atomic energy  EATOM  =    224016.65216645
  Solvation  Ediel_sol  =         0.00000000
  ---------------------------------------------------
  free energy    TOTEN  =      -353.82883862 eV

  energy without entropy =     -353.68346969  energy(sigma->0) =     -353.78038231


--------------------------------------------------------------------------------------------------------




----------------------------------------- Iteration    1(  14)  ---------------------------------------


    POTLOK:  cpu time    0.3200: real time    0.6236
    SETDIJ:  cpu time    0.0490: real time    0.1146
     EDDAV:  cpu time  127.0687: real time  253.6911
       DOS:  cpu time    0.0040: real time    0.0313
    CHARGE:  cpu time    7.3359: real time   14.6340
    MIXING:  cpu time    0.0120: real time    0.0335
    --------------------------------------------
      LOOP:  cpu time  134.7895: real time  269.1291

 eigenvalue-minimisations  :  7960
 total energy-change (2. order) : 0.1291357E-04  (-0.5046863E-06)
 number of electron    1023.9999788 magnetization      46.2336522
 augmentation part      607.5052252 magnetization      39.6984999

 Broyden mixing:
  rms(total) = 0.11426E-02    rms(broyden)= 0.11426E-02
  rms(prec ) = 0.14495E-02
  weight for this iteration     100.00

 eigenvalues of (default mixing * dielectric matrix)
  average eigenvalue GAMMA=   1.2571
  2.4595  2.4595  1.8960  0.9872  0.8726  0.8325  0.5399  0.6280  0.6387

 Free energy of the ion-electron system (eV)
  ---------------------------------------------------
  alpha Z        PSCENC =      7925.72117195
  Ewald energy   TEWEN  =   -142726.55438447
  -Hartree energ DENC   =    -66214.88674403
  -exchange      EXHF   =         0.00000000
  -V(xc)+E(xc)   XCENC  =      5592.86490177
  PAW double counting   =    169985.37793951  -179011.35251285
  entropy T*S    EENTRO =        -0.14531588
  eigenvalues    EBANDS =    -19921.50604816
  atomic energy  EATOM  =    224016.65216645
  Solvation  Ediel_sol  =         0.00000000
  ---------------------------------------------------
  free energy    TOTEN  =      -353.82882571 eV

  energy without entropy =     -353.68350983  energy(sigma->0) =     -353.78038708


--------------------------------------------------------------------------------------------------------




----------------------------------------- Iteration    1(  15)  ---------------------------------------


    POTLOK:  cpu time    0.3200: real time    0.6266
    SETDIJ:  cpu time    0.0490: real time    0.1147
     EDDAV:  cpu time  142.2294: real time  280.5213
       DOS:  cpu time    0.0030: real time    0.0250
    CHARGE:  cpu time    7.4149: real time   14.7916
    MIXING:  cpu time    0.0130: real time    0.0348
    --------------------------------------------
      LOOP:  cpu time  150.0292: real time  296.1163

 eigenvalue-minimisations  :  8320
 total energy-change (2. order) : 0.8839677E-05  (-0.4398033E-06)
 number of electron    1023.9999788 magnetization      46.2331459
 augmentation part      607.5001376 magnetization      39.6979257

 Broyden mixing:
  rms(total) = 0.81252E-04    rms(broyden)= 0.80397E-04
  rms(prec ) = 0.94587E-04
  weight for this iteration     100.00

 eigenvalues of (default mixing * dielectric matrix)
  average eigenvalue GAMMA=   1.2399
  2.6463  2.4087  1.9180  1.0190  1.0190  0.5399  0.7844  0.7844  0.6276  0.6521

 Free energy of the ion-electron system (eV)
  ---------------------------------------------------
  alpha Z        PSCENC =      7925.72117195
  Ewald energy   TEWEN  =   -142726.55438447
  -Hartree energ DENC   =    -66215.27766069
  -exchange      EXHF   =         0.00000000
  -V(xc)+E(xc)   XCENC  =      5592.87971374
  PAW double counting   =    169988.40430582  -179014.27342505
  entropy T*S    EENTRO =        -0.14524990
  eigenvalues    EBANDS =    -19921.23545473
  atomic energy  EATOM  =    224016.65216645
  Solvation  Ediel_sol  =         0.00000000
  ---------------------------------------------------
  free energy    TOTEN  =      -353.82881687 eV

  energy without entropy =     -353.68356697  energy(sigma->0) =     -353.78040024


--------------------------------------------------------------------------------------------------------




----------------------------------------- Iteration    1(  16)  ---------------------------------------


    POTLOK:  cpu time    0.3210: real time    0.6301
    SETDIJ:  cpu time    0.0480: real time    0.1158
     EDDAV:  cpu time   99.1469: real time  197.7563
       DOS:  cpu time    0.0040: real time    0.0340
    --------------------------------------------
      LOOP:  cpu time   99.5209: real time  198.5379

 eigenvalue-minimisations  :  5448
 total energy-change (2. order) :-0.8073403E-07  (-0.1253015E-07)
 number of electron    1023.9999788 magnetization      46.2331459
 augmentation part      607.5001376 magnetization      39.6979257

 Free energy of the ion-electron system (eV)
  ---------------------------------------------------
  alpha Z        PSCENC =      7925.72117195
  Ewald energy   TEWEN  =   -142726.55438447
  -Hartree energ DENC   =    -66215.27444624
  -exchange      EXHF   =         0.00000000
  -V(xc)+E(xc)   XCENC  =      5592.87975810
  PAW double counting   =    169988.42253049  -179014.29535139
  entropy T*S    EENTRO =        -0.14524380
  eigenvalues    EBANDS =    -19921.23501805
  atomic energy  EATOM  =    224016.65216645
  Solvation  Ediel_sol  =         0.00000000
  ---------------------------------------------------
  free energy    TOTEN  =      -353.82881695 eV

  energy without entropy =     -353.68357315  energy(sigma->0) =     -353.78040235


--------------------------------------------------------------------------------------------------------




 average (electrostatic) potential at core
  the test charge radii are     0.8614
  (the norm of the test charge is              1.0000)
       1 -81.5550       2 -81.5550       3 -81.5550       4 -81.5550       5 -81.5550
       6 -81.5550       7 -81.5550       8 -81.5550       9 -81.5550      10 -81.5550
      11 -81.5550      12 -81.5550      13 -81.5550      14 -81.5550      15 -81.5550
      16 -81.5550      17 -81.5550      18 -81.5550      19 -81.5550      20 -81.5550
      21 -81.5550      22 -81.5550      23 -81.5550      24 -81.5550      25 -81.5550
      26 -81.5550      27 -81.5550      28 -81.5550      29 -81.5550      30 -81.5550
      31 -81.5550      32 -81.5550      33 -81.5550      34 -81.5550      35 -81.5550
      36 -81.5550      37 -81.5550      38 -81.5550      39 -81.5550      40 -81.5550
      41 -81.5550      42 -81.5550      43 -81.5550      44 -81.5550      45 -81.5550
      46 -81.5550      47 -81.5550      48 -81.5550      49 -81.5550      50 -81.5550
      51 -81.5550      52 -81.5550      53 -81.5550      54 -81.5550      55 -81.5550
      56 -81.5550      57 -81.5550      58 -81.5550      59 -81.5550      60 -81.5550
      61 -81.5550      62 -81.5550      63 -81.5550      64 -81.5550
 
 
 
 E-fermi :   5.4052     XC(G=0): -12.4165     alpha+bet :-11.9025


 spin component 1

 k-point     1 :       0.0000    0.0000    0.0000
  band No.  band energies     occupation 
      1     -58.3365      1.00000
      2     -58.3364      1.00000
      3     -58.3364      1.00000
      4     -58.3364      1.00000
      5     -58.3318      1.00000
      6     -58.3318      1.00000
      7     -58.3318      1.00000
      8     -58.3210      1.00000
      9     -58.3210      1.00000
     10     -58.3210      1.00000
     11     -58.3210      1.00000
     12     -58.3210      1.00000
     13     -58.3210      1.00000
     14     -58.3210      1.00000
     15     -58.3210      1.00000
     16     -58.3210      1.00000
     17     -58.3210      1.00000
     18     -58.3210      1.00000
     19     -58.3210      1.00000
     20     -58.3210      1.00000
     21     -58.3210      1.00000
     22     -58.3210      1.00000
     23     -58.3210      1.00000
     24     -58.3210      1.00000
     25     -58.3210      1.00000
     26     -58.3210      1.00000
     27     -58.3209      1.00000
     28     -58.3209      1.00000
     29     -58.3209      1.00000
     30     -58.3209      1.00000
     31     -58.3209      1.00000
     32     -58.3102      1.00000
     33     -58.3102      1.00000
     34     -58.3102      1.00000
     35     -58.3102      1.00000
     36     -58.3102      1.00000
     37     -58.3102      1.00000
     38     -58.3101      1.00000
     39     -58.3101      1.00000
     40     -58.3101      1.00000
     41     -58.3101      1.00000
     42     -58.3101      1.00000
     43     -58.3101      1.00000
     44     -58.3055      1.00000
     45     -58.3055      1.00000
     46     -58.3055      1.00000
     47     -58.3055      1.00000
     48     -58.3055      1.00000
     49     -58.3055      1.00000
     50     -58.3054      1.00000
     51     -58.3054      1.00000
     52     -58.3054      1.00000
     53     -58.3054      1.00000
     54     -58.3054      1.00000
     55     -58.3054      1.00000
     56     -58.2897      1.00000
     57     -58.2897      1.00000
     58     -58.2896      1.00000
     59     -58.2896      1.00000
     60     -58.2896      1.00000
     61     -58.2896      1.00000
     62     -58.2896      1.00000
     63     -58.2896      1.00000
     64     -58.2879      1.00000
     65     -58.2879      1.00000
     66     -58.2879      1.00000
     67     -58.2879      1.00000
     68     -58.2879      1.00000
     69     -58.2879      1.00000
     70     -58.2832      1.00000
     71     -58.2832      1.00000
     72     -58.2832      1.00000
     73     -58.2832      1.00000
     74     -58.2832      1.00000
     75     -58.2832      1.00000
     76     -58.2832      1.00000
     77     -58.2832      1.00000
     78     -58.2832      1.00000
     79     -58.2831      1.00000
     80     -58.2831      1.00000
     81     -58.2831      1.00000
     82     -58.2815      1.00000
     83     -58.2815      1.00000
     84     -58.2814      1.00000
     85     -58.2814      1.00000
     86     -58.2814      1.00000
     87     -58.2814      1.00000
     88     -58.2814      1.00000
     89     -58.2814      1.00000
     90     -58.2814      1.00000
     91     -58.2814      1.00000
     92     -58.2814      1.00000
     93     -58.2814      1.00000
     94     -58.2814      1.00000
     95     -58.2814      1.00000
     96     -58.2814      1.00000
     97     -58.2814      1.00000
     98     -58.2814      1.00000
     99     -58.2814      1.00000
    100     -58.2814      1.00000
    101     -58.2814      1.00000
    102     -58.2814      1.00000
    103     -58.2813      1.00000
    104     -58.2813      1.00000
    105     -58.2813      1.00000
    106     -58.2796      1.00000
    107     -58.2796      1.00000
    108     -58.2796      1.00000
    109     -58.2796      1.00000
    110     -58.2796      1.00000
    111     -58.2796      1.00000
    112     -58.2789      1.00000
    113     -58.2789      1.00000
    114     -58.2789      1.00000
    115     -58.2789      1.00000
    116     -58.2788      1.00000
    117     -58.2788      1.00000
    118     -58.2682      1.00000
    119     -58.2682      1.00000
    120     -58.2682      1.00000
    121     -58.2682      1.00000
    122     -58.2682      1.00000
    123     -58.2682      1.00000
    124     -58.2682      1.00000
    125     -58.2682      1.00000
    126     -58.2682      1.00000
    127     -58.2682      1.00000
    128     -58.2682      1.00000
    129     -58.2682      1.00000
    130     -58.2681      1.00000
    131     -58.2681      1.00000
    132     -58.2681      1.00000
    133     -58.2681      1.00000
    134     -58.2681      1.00000
    135     -58.2681      1.00000
    136     -58.2681      1.00000
    137     -58.2681      1.00000
    138     -58.2681      1.00000
    139     -58.2681      1.00000
    140     -58.2681      1.00000
    141     -58.2681      1.00000
    142     -58.2609      1.00000
    143     -58.2609      1.00000
    144     -58.2609      1.00000
    145     -58.2609      1.00000
    146     -58.2609      1.00000
    147     -58.2609      1.00000
    148     -58.2609      1.00000
    149     -58.2609      1.00000
    150     -58.2609      1.00000
    151     -58.2609      1.00000
    152     -58.2609      1.00000
    153     -58.2609      1.00000
    154     -58.2574      1.00000
    155     -58.2574      1.00000
    156     -58.2574      1.00000
    157     -58.2574      1.00000
    158     -58.2574      1.00000
    159     -58.2573      1.00000
    160     -58.2573      1.00000
    161     -58.2573      1.00000
    162     -58.2573      1.00000
    163     -58.2573      1.00000
    164     -58.2573      1.00000
    165     -58.2573      1.00000
    166     -58.2573      1.00000
    167     -58.2573      1.00000
    168     -58.2573      1.00000
    169     -58.2573      1.00000
    170     -58.2573      1.00000
    171     -58.2573      1.00000
    172     -58.2573      1.00000
    173     -58.2573      1.00000
    174     -58.2502      1.00000
    175     -58.2502      1.00000
    176     -58.2502      1.00000
    177     -58.2502      1.00000
    178     -58.2502      1.00000
    179     -58.2502      1.00000
    180     -58.2501      1.00000
    181     -58.2501      1.00000
    182     -58.2501      1.00000
    183     -58.2501      1.00000
    184     -58.2501      1.00000
    185     -58.2501      1.00000
    186     -58.2501      1.00000
    187     -58.2501      1.00000
    188     -58.2501      1.00000
    189     -58.2501      1.00000
    190     -58.2432      1.00000
    191     -58.2431      1.00000
    192     -58.2431      1.00000
    193      -2.2259      1.00000
    194      -0.2965      1.00000
    195      -0.2965      1.00000
    196      -0.2965      1.00000
    197      -0.2965      1.00000
    198      -0.2965      1.00000
    199      -0.2965      1.00000
    200      -0.2965      1.00000
    201      -0.2965      1.00000
    202       0.2944      1.00000
    203       0.2944      1.00000
    204       0.2944      1.00000
    205       0.2944      1.00000
    206       0.2944      1.00000
    207       0.2944      1.00000
    208       1.5562      1.00000
    209       1.5563      1.00000
    210       1.5563      1.00000
    211       1.5563      1.00000
    212       1.8185      1.00000
    213       1.8185      1.00000
    214       1.8185      1.00000
    215       1.9681      1.00000
    216       1.9681      1.00000
    217       1.9681      1.00000
    218       1.9682      1.00000
    219       1.9682      1.00000
    220       1.9682      1.00000
    221       1.9682      1.00000
    222       1.9682      1.00000
    223       1.9682      1.00000
    224       1.9682      1.00000
    225       1.9682      1.00000
    226       1.9682      1.00000
    227       2.1252      1.00000
    228       2.1252      1.00000
    229       2.1252      1.00000
    230       2.1733      1.00000
    231       2.1733      1.00000
    232       2.1733      1.00000
    233       2.1733      1.00000
    234       2.1733      1.00000
    235       2.1733      1.00000
    236       2.1733      1.00000
    237       2.1733      1.00000
    238       2.1733      1.00000
    239       2.1733      1.00000
    240       2.1733      1.00000
    241       2.1733      1.00000
    242       2.1733      1.00000
    243       2.1733      1.00000
    244       2.1733      1.00000
    245       2.1733      1.00000
    246       2.1733      1.00000
    247       2.1733      1.00000
    248       2.1733      1.00000
    249       2.1733      1.00000
    250       2.1733      1.00000
    251       2.1734      1.00000
    252       2.1734      1.00000
    253       2.1734      1.00000
    254       2.4920      1.00000
    255       2.4920      1.00000
    256       2.4920      1.00000
    257       2.4920      1.00000
    258       2.4920      1.00000
    259       2.4920      1.00000
    260       2.6988      1.00000
    261       2.6988      1.00000
    262       2.6988      1.00000
    263       2.6988      1.00000
    264       2.6988      1.00000
    265       2.6988      1.00000
    266       2.6988      1.00000
    267       2.6988      1.00000
    268       2.6988      1.00000
    269       2.6988      1.00000
    270       2.6988      1.00000
    271       2.6988      1.00000
    272       2.6988      1.00000
    273       2.6988      1.00000
    274       2.6988      1.00000
    275       2.6988      1.00000
    276       2.6988      1.00000
    277       2.6988      1.00000
    278       2.6988      1.00000
    279       2.6988      1.00000
    280       2.6988      1.00000
    281       2.6988      1.00000
    282       2.6988      1.00000
    283       2.6988      1.00000
    284       2.7318      1.00000
    285       2.7318      1.00000
    286       2.7318      1.00000
    287       2.7318      1.00000
    288       2.7318      1.00000
    289       2.7318      1.00000
    290       2.9378      1.00000
    291       2.9378      1.00000
    292       2.9378      1.00000
    293       2.9378      1.00000
    294       2.9378      1.00000
    295       2.9378      1.00000
    296       2.9378      1.00000
    297       2.9378      1.00000
    298       2.9378      1.00000
    299       2.9378      1.00000
    300       2.9378      1.00000
    301       2.9378      1.00000
    302       2.9394      1.00000
    303       2.9394      1.00000
    304       2.9394      1.00000
    305       2.9394      1.00000
    306       2.9394      1.00000
    307       2.9394      1.00000
    308       2.9394      1.00000
    309       2.9394      1.00000
    310       2.9394      1.00000
    311       2.9395      1.00000
    312       2.9395      1.00000
    313       2.9395      1.00000
    314       3.1651      1.00000
    315       3.1651      1.00000
    316       3.1651      1.00000
    317       3.1652      1.00000
    318       3.1652      1.00000
    319       3.1652      1.00000
    320       3.1652      1.00000
    321       3.1652      1.00000
    322       3.1979      1.00000
    323       3.1979      1.00000
    324       3.1979      1.00000
    325       3.1979      1.00000
    326       3.1979      1.00000
    327       3.1979      1.00000
    328       3.1979      1.00000
    329       3.1979      1.00000
    330       3.1979      1.00000
    331       3.1979      1.00000
    332       3.1979      1.00000
    333       3.1979      1.00000
    334       3.3727      1.00000
    335       3.3727      1.00000
    336       3.3727      1.00000
    337       3.4061      1.00000
    338       3.4061      1.00000
    339       3.4061      1.00000
    340       3.4061      1.00000
    341       3.4061      1.00000
    342       3.4061      1.00000
    343       3.4062      1.00000
    344       3.4062      1.00000
    345       3.4304      1.00000
    346       3.4304      1.00000
    347       3.4304      1.00000
    348       3.4304      1.00000
    349       3.4304      1.00000
    350       3.4304      1.00000
    351       3.4304      1.00000
    352       3.4304      1.00000
    353       3.4304      1.00000
    354       3.4304      1.00000
    355       3.4304      1.00000
    356       3.4304      1.00000
    357       3.4304      1.00000
    358       3.4304      1.00000
    359       3.4305      1.00000
    360       3.4305      1.00000
    361       3.4305      1.00000
    362       3.4305      1.00000
    363       3.4305      1.00000
    364       3.4305      1.00000
    365       3.4305      1.00000
    366       3.4305      1.00000
    367       3.4305      1.00000
    368       3.4305      1.00000
    369       3.5442      1.00000
    370       3.5442      1.00000
    371       3.5442      1.00000
    372       3.5442      1.00000
    373       3.5442      1.00000
    374       3.5442      1.00000
    375       3.5442      1.00000
    376       3.5442      1.00000
    377       3.5442      1.00000
    378       3.5442      1.00000
    379       3.5442      1.00000
    380       3.5442      1.00000
    381       3.5442      1.00000
    382       3.5442      1.00000
    383       3.5442      1.00000
    384       3.5442      1.00000
    385       3.8196      1.00000
    386       3.8196      1.00000
    387       3.8196      1.00000
    388       3.8196      1.00000
    389       3.8196      1.00000
    390       3.8196      1.00000
    391       3.9368      1.00000
    392       3.9368      1.00000
    393       3.9368      1.00000
    394       3.9368      1.00000
    395       3.9368      1.00000
    396       3.9368      1.00000
    397       3.9368      1.00000
    398       3.9368      1.00000
    399       3.9368      1.00000
    400       3.9368      1.00000
    401       3.9368      1.00000
    402       3.9368      1.00000
    403       3.9740      1.00000
    404       3.9740      1.00000
    405       3.9740      1.00000
    406       3.9740      1.00000
    407       3.9740      1.00000
    408       3.9740      1.00000
    409       3.9740      1.00000
    410       3.9740      1.00000
    411       3.9740      1.00000
    412       3.9740      1.00000
    413       3.9740      1.00000
    414       3.9740      1.00000
    415       4.0205      1.00000
    416       4.0205      1.00000
    417       4.0205      1.00000
    418       4.0205      1.00000
    419       4.0205      1.00000
    420       4.0205      1.00000
    421       4.0205      1.00000
    422       4.0205      1.00000
    423       4.0205      1.00000
    424       4.0205      1.00000
    425       4.0205      1.00000
    426       4.0205      1.00000
    427       4.0205      1.00000
    428       4.0205      1.00000
    429       4.0205      1.00000
    430       4.0205      1.00000
    431       4.0205      1.00000
    432       4.0205      1.00000
    433       4.0205      1.00000
    434       4.0205      1.00000
    435       4.0205      1.00000
    436       4.0206      1.00000
    437       4.0206      1.00000
    438       4.0206      1.00000
    439       4.1175      1.00000
    440       4.1175      1.00000
    441       4.1175      1.00000
    442       4.1175      1.00000
    443       4.1175      1.00000
    444       4.1175      1.00000
    445       4.1175      1.00000
    446       4.1175      1.00000
    447       4.1175      1.00000
    448       4.1175      1.00000
    449       4.1175      1.00000
    450       4.1175      1.00000
    451       4.1950      1.00000
    452       4.1950      1.00000
    453       4.1950      1.00000
    454       4.1950      1.00000
    455       4.1950      1.00000
    456       4.1950      1.00000
    457       4.2302      1.00000
    458       4.2302      1.00000
    459       4.2766      1.00000
    460       4.2766      1.00000
    461       4.2766      1.00000
    462       4.2766      1.00000
    463       4.2766      1.00000
    464       4.2766      1.00000
    465       4.2766      1.00000
    466       4.2766      1.00000
    467       4.2766      1.00000
    468       4.2766      1.00000
    469       4.2766      1.00000
    470       4.2766      1.00000
    471       4.2766      1.00000
    472       4.2766      1.00000
    473       4.2766      1.00000
    474       4.2766      1.00000
    475       4.4793      1.00000
    476       4.4793      1.00000
    477       4.4793      1.00000
    478       4.4793      1.00000
    479       4.4793      1.00000
    480       4.4793      1.00000
    481       4.6839      1.00000
    482       4.6839      1.00000
    483       4.6839      1.00000
    484       4.6839      1.00000
    485       4.6839      1.00000
    486       4.6839      1.00000
    487       4.6839      1.00000
    488       4.6839      1.00000
    489       4.7168      1.00001
    490       4.7168      1.00001
    491       4.7168      1.00001
    492       4.7168      1.00001
    493       4.7168      1.00001
    494       4.7168      1.00001
    495       4.7168      1.00001
    496       4.7168      1.00001
    497       4.7168      1.00001
    498       4.7169      1.00001
    499       4.7169      1.00001
    500       4.7169      1.00001
    501       4.7169      1.00001
    502       4.7169      1.00001
    503       4.7169      1.00001
    504       4.7169      1.00001
    505       4.7169      1.00001
    506       4.7169      1.00001
    507       4.7169      1.00001
    508       4.7169      1.00001
    509       4.7169      1.00001
    510       4.7169      1.00001
    511       4.7169      1.00001
    512       4.7169      1.00001
    513       4.7345      1.00001
    514       4.7345      1.00001
    515       4.7346      1.00001
    516       4.7643      1.00003
    517       4.7643      1.00003
    518       4.7643      1.00003
    519       4.7643      1.00003
    520       4.7644      1.00003
    521       4.7644      1.00003
    522       4.7648      1.00003
    523       4.7648      1.00003
    524       4.7648      1.00003
    525       4.7648      1.00003
    526       4.7648      1.00003
    527       4.7648      1.00003
    528       5.4476      0.32493
    529       5.4476      0.32493
    530       5.4476      0.32493
    531       5.4477      0.32450
[...]
    MIXING:  cpu time    0.0140: real time    0.0316
    OFIELD:  cpu time    0.0000: real time    0.0001

  FORCE on cell =-STRESS in cart. coord.  units (eV):
  Direction    XX          YY          ZZ          XY          YZ          ZX
  --------------------------------------------------------------------------------------
  Alpha Z  7925.72117  7925.72117  7925.72117
  Ewald  -47575.80653-47575.80653-47575.80653     0.00000     0.00000     0.00000
  Hartree 22071.73332 22071.73332 22071.73332     0.00000     0.00000     0.00000
  E(xc)   -7557.53255 -7557.53255 -7557.53255    -0.00033    -0.00033    -0.00033
  Local    5153.37130  5153.37130  5153.37130     0.04284     0.04284     0.04284
  n-local -5845.74458 -5845.74455 -5838.87665    -4.36822     0.67354    -0.67463
  augment 11463.18972 11463.18972 11463.18972    -0.03970    -0.03971    -0.03971
  Kinetic 14214.62453 14214.62425 14236.74606   -25.76507    10.44078   -10.41359
  Fock        0.00000     0.00000     0.00000     0.00000     0.00000     0.00000
  -------------------------------------------------------------------------------------
  Total    -140.78055  -140.78055  -140.78055    -0.00000     0.00000    -0.00000
  in kB    -259.07797  -259.07797  -259.07797    -0.00000     0.00000    -0.00000
  external pressure =     -259.08 kB  Pullay stress =        0.00 kB


 VOLUME and BASIS-vectors are now :
 -----------------------------------------------------------------------------
  energy-cutoff  :      459.93
  volume of cell :      870.61
      direct lattice vectors                 reciprocal lattice vectors
     0.000000000  7.578750000  7.578750000    -0.065973940  0.065973940  0.065973940
     7.578750000  0.000000000  7.578750000     0.065973940 -0.065973940  0.065973940
     7.578750000  7.578750000  0.000000000     0.065973940  0.065973940 -0.065973940

  length of vectors
    10.717971036 10.717971036 10.717971036     0.114270217  0.114270217  0.114270217


 FORCES acting on ions
    electron-ion (+dipol)            ewald-force                    non-local-force                 convergence-correction
 -----------------------------------------------------------------------------------------------
   0.530E-12 0.566E-12 -.313E-12   0.178E-12 0.210E-12 0.750E-12   -.174E-23 -.274E-23 -.272E-23   0.179E-11 0.396E-11 -.181E-11
   0.153E-11 0.170E-11 -.556E-13   0.291E-12 0.178E-12 0.398E-12   0.160E-23 0.103E-24 0.685E-24   -.229E-11 -.179E-11 0.125E-11
   0.389E-11 0.422E-11 -.747E-13   0.143E-12 0.322E-12 0.568E-13   -.750E-24 0.240E-23 -.414E-24   -.159E-11 -.313E-12 0.310E-11
   0.599E-11 0.612E-11 -.764E-12   0.142E-12 -.135E-12 0.270E-12   0.137E-23 0.102E-22 0.752E-23   0.720E-12 0.371E-11 0.107E-11
   0.247E-11 0.706E-12 0.152E-11   -.782E-13 0.000E+00 0.298E-12   0.258E-23 0.538E-23 0.773E-23   0.246E-11 0.265E-11 -.121E-11
   0.363E-11 0.185E-11 0.182E-11   0.488E-12 0.192E-12 -.146E-12   0.473E-23 -.646E-24 -.646E-26   -.117E-11 -.118E-11 0.326E-11
   0.608E-11 0.429E-11 0.178E-11   0.117E-12 0.334E-12 -.131E-12   -.261E-23 -.196E-23 -.396E-23   -.131E-11 -.480E-12 0.377E-11
   0.828E-11 0.630E-11 0.117E-11   -.114E-12 -.121E-12 -.128E-12   -.126E-23 0.622E-23 -.428E-23   0.553E-12 0.171E-11 0.419E-12
   0.460E-11 0.524E-12 0.387E-11   -.865E-13 -.142E-12 0.148E-12   0.395E-23 0.536E-23 0.394E-23   0.333E-11 0.358E-11 -.715E-12
   0.576E-11 0.167E-11 0.408E-11   0.249E-13 -.256E-12 -.300E-12   0.202E-23 0.253E-23 0.984E-23   -.121E-11 -.153E-11 0.304E-11
   0.820E-11 0.412E-11 0.407E-11   0.114E-12 0.225E-12 0.169E-12   -.775E-24 0.551E-23 -.646E-24   -.177E-11 -.194E-11 0.192E-11
   0.100E-10 0.602E-11 0.344E-11   -.114E-12 -.227E-12 -.586E-13   0.703E-23 0.931E-24 -.543E-24   0.833E-12 0.125E-11 -.841E-12
   0.666E-11 0.198E-13 0.580E-11   0.263E-12 -.853E-13 -.782E-13   -.132E-23 -.388E-24 0.266E-23   0.210E-11 0.555E-11 -.233E-11
   0.805E-11 0.128E-11 0.611E-11   0.256E-12 -.114E-12 -.298E-12   0.501E-23 -.286E-23 0.401E-23   -.300E-11 -.139E-11 0.102E-12
   0.101E-10 0.371E-11 0.600E-11   0.171E-12 -.114E-12 -.739E-12   0.341E-23 -.233E-23 -.615E-23   -.290E-11 -.107E-11 0.143E-12
   0.124E-10 0.567E-11 0.544E-11   0.149E-12 -.114E-12 -.284E-12   0.101E-23 0.605E-23 0.432E-23   0.202E-12 0.404E-11 -.120E-11
   -.947E-11 -.754E-11 0.159E-11   0.114E-12 -.142E-13 0.675E-12   0.579E-23 -.207E-23 0.181E-23   0.222E-11 0.153E-11 -.305E-11
   0.854E-11 0.106E-10 0.187E-11   -.249E-13 -.169E-13 0.192E-12   -.713E-23 -.538E-23 0.508E-23   -.514E-12 -.734E-12 0.211E-11
   -.608E-11 -.401E-11 0.186E-11   0.830E-14 0.711E-13 0.959E-13   0.125E-23 -.207E-24 -.476E-23   -.934E-12 0.267E-12 0.290E-11
   0.129E-10 0.150E-10 0.123E-11   -.107E-12 0.270E-12 0.355E-12   0.931E-24 0.620E-24 -.324E-23   0.317E-13 0.959E-12 -.116E-11
   0.432E-11 0.147E-11 0.705E-11   0.995E-13 0.107E-13 0.228E-12   -.711E-24 0.733E-23 0.225E-23   0.453E-11 0.232E-11 -.198E-11
   0.243E-11 0.572E-11 0.509E-12   0.170E-13 0.214E-12 0.200E-12   -.879E-24 -.517E-24 0.332E-23   -.611E-12 -.100E-11 0.182E-11
   0.788E-11 0.500E-11 0.725E-11   -.160E-12 0.153E-12 0.970E-13   -.618E-23 -.659E-23 -.465E-24   -.221E-11 -.149E-11 0.746E-12
   0.693E-11 0.999E-11 -.121E-12   -.181E-12 0.180E-12 0.118E-12   0.388E-23 0.258E-23 -.406E-23   0.926E-12 -.629E-13 -.196E-11
   -.539E-11 -.761E-11 0.579E-11   0.480E-13 -.995E-13 -.462E-13   0.463E-23 0.202E-23 0.481E-23   0.411E-11 0.233E-11 -.153E-11
   0.127E-10 0.106E-10 0.605E-11   -.355E-13 0.158E-12 -.675E-13   0.339E-23 -.595E-24 0.346E-23   -.210E-11 -.285E-11 0.739E-12
   -.174E-11 -.412E-11 0.601E-11   -.156E-12 -.142E-13 -.171E-12   0.207E-24 0.343E-23 -.105E-23   -.163E-11 -.207E-11 0.573E-12
   0.169E-10 0.148E-10 0.548E-11   0.163E-12 -.426E-13 -.618E-12   0.414E-24 0.620E-24 -.437E-23   0.265E-11 0.120E-11 -.654E-12
   0.850E-11 0.800E-12 0.113E-10   -.163E-12 -.924E-13 -.725E-12   -.308E-23 -.491E-24 0.226E-23   0.120E-11 0.252E-11 -.348E-11
   0.680E-11 0.497E-11 0.475E-11   -.212E-13 -.923E-13 -.750E-12   -.351E-23 -.711E-24 0.387E-23   -.293E-11 -.177E-11 -.148E-12
   0.119E-10 0.437E-11 0.113E-10   0.711E-13 -.711E-14 -.270E-12   0.561E-23 0.207E-24 0.277E-23   -.124E-11 0.517E-12 0.152E-11
   0.115E-10 0.965E-11 0.431E-11   -.426E-13 -.323E-13 -.724E-12   0.557E-24 -.586E-24 -.263E-23   0.116E-11 0.313E-11 -.793E-12
   -.197E-10 -.156E-10 0.376E-11   0.114E-12 0.639E-14 0.729E-12   0.346E-23 0.564E-23 -.171E-23   0.417E-11 0.375E-11 -.263E-11
   -.285E-10 -.245E-10 0.401E-11   -.355E-13 0.355E-14 0.701E-12   0.207E-23 0.579E-23 0.176E-23   -.109E-12 0.162E-12 0.147E-11
   0.176E-10 0.216E-10 0.389E-11   -.182E-14 0.853E-13 0.143E-12   0.931E-24 0.393E-23 -.600E-23   -.216E-11 -.200E-11 0.641E-12
   0.901E-11 0.131E-10 0.326E-11   -.114E-12 0.284E-12 0.392E-12   0.445E-23 0.729E-23 -.222E-23   -.225E-12 -.852E-12 -.228E-11
   -.287E-10 -.142E-10 -.656E-11   0.782E-13 0.254E-13 0.274E-12   -.129E-23 0.321E-23 -.164E-23   0.519E-11 0.290E-11 -.223E-11
   -.222E-11 -.487E-11 0.124E-10   0.256E-13 0.252E-12 0.245E-12   -.271E-23 -.434E-23 -.261E-23   -.159E-11 -.198E-11 -.195E-12
   0.839E-11 0.224E-10 -.610E-11   -.171E-12 0.199E-12 0.142E-12   -.457E-23 0.885E-24 -.421E-23   -.221E-11 -.272E-11 0.207E-12
   -.366E-11 0.125E-10 -.885E-11   -.171E-12 0.199E-12 0.163E-12   0.195E-23 0.461E-23 0.742E-24   0.242E-11 -.142E-12 -.594E-12
   0.802E-11 0.195E-11 0.147E-10   0.481E-13 -.730E-13 0.000E+00   0.249E-23 0.274E-23 0.579E-23   0.314E-11 0.119E-11 -.209E-11
   -.121E-11 -.141E-10 0.216E-10   -.213E-13 0.384E-12 -.284E-13   0.133E-23 0.236E-23 0.326E-23   -.198E-11 -.257E-11 0.120E-11
   0.566E-11 0.114E-10 0.125E-11   -.172E-12 0.306E-14 -.130E-12   -.346E-23 0.675E-23 0.168E-23   -.169E-12 -.154E-11 0.271E-11
   0.291E-10 0.162E-10 0.211E-10   0.163E-12 -.142E-13 -.114E-12   -.103E-23 -.682E-23 -.530E-23   0.315E-11 0.230E-12 0.567E-12
   -.152E-11 0.271E-11 0.372E-11   -.171E-12 -.555E-13 -.227E-12   -.243E-23 0.310E-23 0.196E-23   0.107E-11 0.275E-11 -.387E-11
   -.141E-10 -.859E-11 0.245E-11   -.142E-13 -.568E-13 -.696E-12   -.827E-24 -.114E-23 0.517E-25   -.144E-11 0.402E-12 0.165E-11
   0.283E-10 0.318E-10 0.454E-11   0.639E-13 0.142E-13 -.234E-12   -.724E-24 0.439E-23 -.708E-23   -.865E-12 0.381E-14 0.221E-11
   0.919E-11 0.150E-10 0.165E-11   -.575E-13 0.000E+00 -.682E-12   -.515E-23 0.454E-23 -.233E-24   -.223E-12 0.394E-12 -.207E-11
   -.707E-10 -.642E-10 0.570E-11   -.142E-13 0.782E-13 0.732E-12   0.385E-23 -.442E-23 0.181E-24   0.438E-11 0.484E-11 -.322E-11
   0.749E-12 0.733E-11 0.598E-11   0.107E-12 -.270E-12 0.732E-12   0.509E-23 -.982E-24 0.494E-23   -.114E-11 -.178E-11 -.934E-12
   0.469E-10 0.535E-10 0.590E-11   0.456E-12 -.171E-12 0.739E-12   -.266E-23 0.765E-23 -.417E-24   -.220E-11 -.329E-11 -.232E-12
   -.414E-10 -.347E-10 0.530E-11   0.227E-12 -.206E-12 0.739E-12   -.595E-24 0.315E-23 0.416E-23   0.127E-11 0.116E-11 -.115E-11
   -.208E-10 -.263E-10 0.195E-10   0.107E-12 -.178E-12 0.213E-12   0.419E-23 -.217E-23 0.414E-23   0.396E-11 0.229E-11 -.255E-11
   0.144E-10 0.123E-10 0.164E-10   -.120E-12 -.378E-12 0.100E-12   -.137E-23 0.168E-23 0.411E-23   -.144E-11 -.263E-11 0.414E-12
   -.383E-11 0.310E-10 -.239E-10   -.355E-12 -.185E-12 0.213E-12   -.256E-23 0.173E-23 0.221E-23   -.551E-12 -.234E-11 0.218E-11
   0.440E-11 0.688E-12 0.172E-10   0.296E-12 0.496E-13 0.211E-12   0.509E-23 0.377E-23 -.512E-23   0.278E-11 0.606E-12 0.356E-12
   0.252E-10 -.265E-10 0.654E-10   0.207E-12 -.171E-12 0.227E-12   0.807E-23 0.176E-23 0.367E-23   0.314E-11 0.171E-11 -.217E-11
   -.425E-11 -.146E-10 0.211E-10   -.135E-12 -.369E-12 0.455E-12   0.191E-23 0.553E-23 0.113E-22   -.242E-12 -.208E-11 0.265E-11
   0.310E-10 0.188E-10 0.228E-10   -.369E-12 -.178E-12 0.455E-12   -.507E-23 0.258E-23 0.284E-23   0.524E-12 -.257E-11 0.285E-11
   0.429E-10 -.664E-11 0.630E-10   -.171E-12 -.171E-12 0.227E-12   0.689E-23 -.523E-23 -.704E-24   0.218E-11 -.717E-12 -.724E-12
   -.631E-10 -.269E-10 -.229E-10   -.568E-13 0.114E-12 -.228E-12   0.296E-23 -.480E-23 0.609E-23   0.284E-11 0.512E-11 -.368E-11
   0.417E-11 0.274E-10 -.975E-11   -.284E-12 -.310E-14 -.946E-15   -.279E-23 -.571E-23 0.843E-23   -.732E-12 -.455E-12 0.442E-12
   0.430E-10 0.735E-10 -.170E-10   -.171E-12 -.171E-12 -.114E-12   -.775E-25 -.646E-24 0.109E-23   -.171E-11 -.258E-11 -.473E-12
   -.338E-10 -.123E-10 -.860E-11   0.283E-15 -.110E-15 -.228E-12   -.222E-23 -.142E-23 0.352E-23   -.418E-12 0.639E-12 -.340E-11
 -----------------------------------------------------------------------------------------------
   0.177E-09 0.198E-09 0.363E-09   0.861E-12 -.153E-12 0.367E-11   0.446E-22 0.788E-22 0.657E-22   0.222E-10 0.194E-10 -.931E-11
 
 
 POSITION                                       TOTAL-FORCE (eV/Angst)
 -----------------------------------------------------------------------------------
      0.00000      0.00000      0.00000         0.000000     -0.000000     -0.000000
      1.89469      1.89469      0.00000        -0.000000     -0.000000      0.000000
      3.78938      3.78938      0.00000        -0.000000     -0.000000      0.000000
      5.68406      5.68406      0.00000         0.000000      0.000000      0.000000
      1.89469      0.00000      1.89469         0.000000      0.000000      0.000000
      3.78938      1.89469      1.89469         0.000000      0.000000      0.000000
      5.68406      3.78938      1.89469        -0.000000     -0.000000     -0.000000
      7.57875      5.68406      1.89469         0.000000     -0.000000      0.000000
      3.78938      0.00000      3.78938        -0.000000      0.000000      0.000000
      5.68406      1.89469      3.78938         0.000000      0.000000      0.000000
      7.57875      3.78938      3.78938         0.000000     -0.000000     -0.000000
      9.47344      5.68406      3.78938        -0.000000     -0.000000      0.000000
      5.68406      0.00000      5.68406        -0.000000     -0.000000      0.000000
      7.57875      1.89469      5.68406         0.000000     -0.000000     -0.000000
      9.47344      3.78938      5.68406         0.000000     -0.000000     -0.000000
     11.36813      5.68406      5.68406        -0.000000      0.000000      0.000000
      0.00000      1.89469      1.89469         0.000000     -0.000000     -0.000000
      1.89469      3.78938      1.89469        -0.000000     -0.000000     -0.000000
      3.78938      5.68406      1.89469        -0.000000     -0.000000      0.000000
      5.68406      7.57875      1.89469        -0.000000      0.000000     -0.000000
      1.89469      1.89469      3.78938         0.000000     -0.000000      0.000000
      3.78938      3.78938      3.78938        -0.000000     -0.000000     -0.000000
      5.68406      5.68406      3.78938        -0.000000     -0.000000      0.000000
      7.57875      7.57875      3.78938         0.000000     -0.000000      0.000000
      3.78938      1.89469      5.68406        -0.000000     -0.000000      0.000000
      5.68406      3.78938      5.68406         0.000000      0.000000      0.000000
      7.57875      5.68406      5.68406         0.000000     -0.000000     -0.000000
      9.47344      7.57875      5.68406         0.000000      0.000000     -0.000000
      5.68406      1.89469      7.57875         0.000000     -0.000000      0.000000
      7.57875      3.78938      7.57875         0.000000     -0.000000     -0.000000
      9.47344      5.68406      7.57875        -0.000000      0.000000     -0.000000
     11.36813      7.57875      7.57875         0.000000      0.000000      0.000000
      0.00000      3.78938      3.78938         0.000000     -0.000000     -0.000000
      1.89469      5.68406      3.78938         0.000000     -0.000000     -0.000000
      3.78938      7.57875      3.78938        -0.000000      0.000000      0.000000
      5.68406      9.47344      3.78938        -0.000000      0.000000     -0.000000
      1.89469      3.78938      5.68406         0.000000      0.000000      0.000000
      3.78938      5.68406      5.68406         0.000000      0.000000     -0.000000
      5.68406      7.57875      5.68406        -0.000000     -0.000000     -0.000000
      7.57875      9.47344      5.68406         0.000000     -0.000000     -0.000000
      3.78938      3.78938      7.57875        -0.000000     -0.000000     -0.000000
      5.68406      5.68406      7.57875         0.000000      0.000000      0.000000
      7.57875      7.57875      7.57875         0.000000      0.000000      0.000000
      9.47344      9.47344      7.57875        -0.000000      0.000000     -0.000000
      5.68406      3.78938      9.47344         0.000000     -0.000000      0.000000
      7.57875      5.68406      9.47344        -0.000000      0.000000      0.000000
      9.47344      7.57875      9.47344        -0.000000      0.000000     -0.000000
     11.36813      9.47344      9.47344        -0.000000      0.000000      0.000000
      0.00000      5.68406      5.68406         0.000000      0.000000     -0.000000
      1.89469      7.57875      5.68406        -0.000000      0.000000      0.000000
      3.78938      9.47344      5.68406        -0.000000     -0.000000      0.000000
      5.68406     11.36813      5.68406         0.000000      0.000000     -0.000000
      1.89469      5.68406      7.57875         0.000000      0.000000     -0.000000
      3.78938      7.57875      7.57875        -0.000000      0.000000     -0.000000
      5.68406      9.47344      7.57875        -0.000000     -0.000000      0.000000
      7.57875     11.36813      7.57875         0.000000     -0.000000     -0.000000
      3.78938      5.68406      9.47344        -0.000000      0.000000      0.000000
      5.68406      7.57875      9.47344         0.000000      0.000000      0.000000
      7.57875      9.47344      9.47344         0.000000     -0.000000     -0.000000
      9.47344     11.36813      9.47344        -0.000000      0.000000     -0.000000
      5.68406      5.68406     11.36813         0.000000     -0.000000      0.000000
      7.57875      7.57875     11.36813        -0.000000     -0.000000     -0.000000
      9.47344      9.47344     11.36813        -0.000000      0.000000      0.000000
     11.36813     11.36813     11.36813        -0.000000      0.000000     -0.000000
 -----------------------------------------------------------------------------------
    total drift:                                0.000000      0.000000      0.000000


--------------------------------------------------------------------------------------------------------



  FREE ENERGIE OF THE ION-ELECTRON SYSTEM (eV)
  ---------------------------------------------------
  free  energy   TOTEN  =      -353.82881695 eV

  energy  without entropy=     -353.68357315  energy(sigma->0) =     -353.78040235
 


--------------------------------------------------------------------------------------------------------


    POTLOK:  cpu time    0.3699: real time    0.7469


--------------------------------------------------------------------------------------------------------


 
 Found     1 degrees of freedom:
  ----------------------------------------------
 
     directions for atom     1:  x 
 Linear response reoptimize wavefunctions
 Linear response:
   Degrees of freedom DOF   =            1
 Linear response progress:
  Degree of freedom:   1/  1
  LATTYP: Found a face centered cubic cell.
 ALAT       =    15.1575000000
  
  Lattice vectors:
  
 A1 = (   0.0000000000,   7.5787500000,   7.5787500000)
 A2 = (   7.5787500000,   0.0000000000,   7.5787500000)
 A3 = (   7.5787500000,   7.5787500000,   0.0000000000)


Analysis of symmetry for initial positions (statically):
=====================================================================
 Subroutine PRICEL returns following result:
 
  LATTYP: Found a face centered cubic cell.
 ALAT       =     3.7893750000
  
  Lattice vectors:
  
 A1 = (   0.0000000000,   1.8946875000,   1.8946875000)
 A2 = (   1.8946875000,   0.0000000000,   1.8946875000)
 A3 = (   1.8946875000,   1.8946875000,   0.0000000000)
 
  64 primitive cells build up your supercell.
 

 Routine SETGRP: Setting up the symmetry group for a 
 face centered cubic supercell.


 Subroutine GETGRP returns: Found 48 space group operations
 (whereof 48 operations were pure point group operations)
 out of a pool of 48 trial point group operations.


The static configuration has the point symmetry O_h .


Analysis of symmetry for dynamics (positions and initial velocities):
=====================================================================
 Subroutine PRICEL returns:
 Original cell was already a primitive cell.
 

 Routine SETGRP: Setting up the symmetry group for a 
 face centered cubic supercell.


 Subroutine GETGRP returns: Found  8 space group operations
 (whereof  8 operations were pure point group operations)
 out of a pool of 48 trial point group operations.


The dynamic configuration has the point symmetry C_4v.


Analysis of structural, dynamic, and magnetic symmetry:
=====================================================================
 Subroutine PRICEL returns:
 Original cell was already a primitive cell.
 

 Routine SETGRP: Setting up the symmetry group for a 
 face centered cubic supercell.


 Subroutine GETGRP returns: Found  8 space group operations
 (whereof  8 operations were pure point group operations)
 out of a pool of 48 trial point group operations.


The magnetic configuration has the point symmetry C_4v.


 Subroutine INISYM returns: Found  8 space group operations
 (whereof  8 operations are pure point group operations),
 and found     1 'primitive' translations



----------------------------------------- Iteration    4(   1)  ---------------------------------------


   POT+DIJ:  cpu time    1.6957: real time    2.2870
    HAMIL1:  cpu time   44.7362: real time   85.5219
    LRDIAG:  cpu time   11.1783: real time   22.3152
    LRDIIS:  cpu time  154.7075: real time  308.8481
