       N       E                     dE             d eps       ncg     rms          rms(c)
DAV:   1     0.134635609988E+05    0.13464E+05   -0.55720E+05 30560   0.184E+03
DAV:   2     0.710362192070E+03   -0.12753E+05   -0.12366E+05 25920   0.624E+02
DAV:   3    -0.366665016643E+03   -0.10770E+04   -0.88630E+03 26792   0.189E+02
DAV:   4    -0.422890124248E+03   -0.56225E+02   -0.54776E+02 27888   0.426E+01
DAV:   5    -0.423747169137E+03   -0.85704E+00   -0.85635E+00 27448   0.497E+00    0.684E+01
DAV:   6    -0.400791161857E+03    0.22956E+02   -0.67609E+02 27264   0.720E+01    0.600E+01
DAV:   7    -0.361589497799E+03    0.39202E+02   -0.14617E+02 27096   0.336E+01    0.582E+00
DAV:   8    -0.361742597114E+03   -0.15310E+00   -0.13858E+00 26984   0.238E+00    0.292E+00
DAV:   9    -0.361727947958E+03    0.14649E-01   -0.20876E-01 27768   0.776E-01    0.107E+00
DAV:  10    -0.361732288930E+03   -0.43410E-02   -0.11899E-02 29400   0.173E-01    0.263E-01
DAV:  11    -0.361733702057E+03   -0.14131E-02   -0.34996E-03 26960   0.142E-01    0.134E-01
DAV:  12    -0.361733885646E+03   -0.18359E-03   -0.48032E-04 27840   0.449E-02    0.562E-02
DAV:  13    -0.361733913914E+03   -0.28268E-04   -0.10139E-04 25816   0.180E-02    0.150E-02
DAV:  14    -0.361733907168E+03    0.67462E-05   -0.49987E-06 20768   0.491E-03    0.838E-03
DAV:  15    -0.361733895092E+03    0.12076E-04   -0.22492E-06 16280   0.396E-03    0.362E-03
DAV:  16    -0.361733892848E+03    0.22436E-05   -0.32391E-07 13576   0.139E-03    0.577E-04
DAV:  17    -0.361733893127E+03   -0.27893E-06   -0.27306E-08 13536   0.406E-04
   1 F= -.36173389E+03 E0= -.36165474E+03  d E =-.237454E+00  mag=    42.3273
 Found     1 degrees of freedom:
       N       E                     dE             d eps       ncg     rms          rms(c)
DAV:   1    -0.361658549932E+03    0.75343E-01   -0.24906E+00 62288   0.147E+01    0.459E-01
DAV:   2    -0.361734082579E+03   -0.75533E-01   -0.73835E-01 47824   0.151E+00    0.111E+00
DAV:   3    -0.361735382758E+03   -0.13002E-02   -0.27660E-02 57256   0.777E-01    0.995E-01
DAV:   4    -0.361735156156E+03    0.22660E-03   -0.44755E-03 56320   0.497E-01    0.884E-01
DAV:   5    -0.361733426674E+03    0.17295E-02   -0.12957E-03 50568   0.337E-01    0.172E-01
DAV:   6    -0.361733417591E+03    0.90831E-05   -0.24329E-04 61280   0.758E-02    0.141E-01
DAV:   7    -0.361733378025E+03    0.39566E-04   -0.56036E-05 51504   0.516E-02    0.125E-01
DAV:   8    -0.361733358785E+03    0.19240E-04   -0.51615E-05 51464   0.574E-02    0.123E-01
DAV:   9    -0.361733387099E+03   -0.28314E-04   -0.11935E-04 51920   0.971E-02    0.197E-01
DAV:  10    -0.361733270058E+03    0.11704E-03   -0.12359E-04 60000   0.938E-02    0.355E-02
DAV:  11    -0.361733277532E+03   -0.74735E-05   -0.32390E-05 62240   0.301E-02    0.611E-02
DAV:  12    -0.361733272371E+03    0.51607E-05   -0.11272E-05 51496   0.257E-02    0.288E-02
DAV:  13    -0.361733270919E+03    0.14524E-05   -0.33402E-06 35976   0.142E-02    0.115E-02
DAV:  14    -0.361733271436E+03   -0.51718E-06   -0.12548E-06 25040   0.860E-03
   2 F= -.36173327E+03 E0= -.36165413E+03  d E =-.237439E+00  mag=    42.3273
       N       E                     dE             d eps       ncg     rms          rms(c)
DAV:   1    -0.361471915514E+03    0.26136E+00   -0.80916E+00 62488   0.261E+01    0.876E-01
DAV:   2    -0.361749006688E+03   -0.27709E+00   -0.25791E+00 48168   0.273E+00    0.313E+00
DAV:   3    -0.361736329979E+03    0.12677E-01   -0.11757E-01 55584   0.142E+00    0.124E+00
DAV:   4    -0.361743648937E+03   -0.73190E-02   -0.17781E-02 57928   0.104E+00    0.211E+00
DAV:   5    -0.361733943943E+03    0.97050E-02   -0.75770E-03 50568   0.777E-01    0.443E-01
DAV:   6    -0.361733716301E+03    0.22764E-03   -0.11831E-03 60088   0.193E-01    0.247E-01
DAV:   7    -0.361733661511E+03    0.54790E-04   -0.32857E-04 51992   0.120E-01    0.263E-01
DAV:   8    -0.361733502317E+03    0.15919E-03   -0.22405E-04 51424   0.120E-01    0.207E-01
DAV:   9    -0.361733592044E+03   -0.89727E-04   -0.31479E-04 51664   0.154E-01    0.316E-01
DAV:  10    -0.361733438441E+03    0.15360E-03   -0.40027E-04 58328   0.176E-01    0.292E-01
DAV:  11    -0.361733266531E+03    0.17191E-03   -0.20533E-04 58336   0.108E-01    0.425E-02
DAV:  12    -0.361733288157E+03   -0.21626E-04   -0.56993E-05 68368   0.459E-02    0.895E-02
DAV:  13    -0.361733271473E+03    0.16684E-04   -0.26014E-05 50264   0.414E-02    0.247E-02
DAV:  14    -0.361733273884E+03   -0.24108E-05   -0.64497E-06 46696   0.184E-02    0.383E-02
DAV:  15    -0.361733270937E+03    0.29466E-05   -0.31840E-06 30256   0.155E-02    0.840E-03
DAV:  16    -0.361733271386E+03   -0.44849E-06   -0.10819E-06 24144   0.769E-03
   3 F= -.36173327E+03 E0= -.36165412E+03  d E =-.237440E+00  mag=    42.3273
