 vasp.5.4.1 05Feb16 (build Oct 12 2016 17:31:35) complex                        
  
 executed on           IFC91_ompi date 2020.09.07  22:41:48
 running on    4 total cores
 distrk:  each k-point on    4 cores,    1 groups
 distr:  one band on NCORES_PER_BAND=   1 cores,    4 groups


--------------------------------------------------------------------------------------------------------


 INCAR:
 POTCAR:   PAW_PBE Ni_pv 06Sep2000                
 POTCAR:   PAW_PBE Ni_pv 06Sep2000                
  local pseudopotential read in
  partial core-charges read in
  atomic valenz-charges read in
  non local Contribution for L=           1  read in
    real space projection operators read in
  non local Contribution for L=           1  read in
    real space projection operators read in
  non local Contribution for L=           2  read in
    real space projection operators read in
  non local Contribution for L=           2  read in
    real space projection operators read in
  non local Contribution for L=           0  read in
    real space projection operators read in
  non local Contribution for L=           0  read in
    real space projection operators read in
    PAW grid and wavefunctions read in
 
   number of l-projection  operators is LMAX  =           6
   number of lm-projection operators is LMMAX =          18
 
 Optimization of the real space projectors (new method)

 maximal supplied QI-value         = 18.90
 optimisation between [QCUT,QGAM] = [  9.83, 19.65] = [ 27.04,108.16] Ry 
 Optimized for a Real-space Cutoff    1.44 Angstroem

   l    n(q)    QCUT    max X(q) W(low)/X(q) W(high)/X(q)  e(spline) 
   1      8     9.827     3.231    0.38E-04    0.39E-04    0.57E-07
   1      8     9.827     4.241    0.57E-04    0.19E-03    0.30E-06
   2      7     9.827     3.566    0.29E-04    0.66E-04    0.48E-07
   2      7     9.827    20.429    0.17E-03    0.37E-03    0.30E-06
   0      8     9.827    19.799    0.18E-04    0.76E-05    0.78E-08
   0      8     9.827    52.283    0.39E-04    0.68E-04    0.44E-07
 PAW_PBE Ni_pv 06Sep2000                :
 energy of atom  1       EATOM=-3500.3496
 kinetic energy error for atom=    0.1419 (will be added to EATOM!!)
 
 
 POSCAR: Supercell by Yi Wang                    
  positions in direct lattice
  No initial velocities read in
 exchange correlation table for  LEXCH =        8
   RHO(1)=    0.500       N(1)  =     2000
   RHO(2)=  100.500       N(2)  =     4000
 


--------------------------------------------------------------------------------------------------------


 ion  position               nearest neighbor table
   1  0.000  0.000  0.000-
   2  0.000  0.000  0.250-
   3  0.000  0.000  0.500-
   4  0.000  0.000  0.750-
   5  0.000  0.250  0.000-
   6  0.000  0.250  0.250-
   7  0.000  0.250  0.500-
   8  0.000  0.250  0.750-
   9  0.000  0.500  0.000-
  10  0.000  0.500  0.250-
  11  0.000  0.500  0.500-
  12  0.000  0.500  0.750-
  13  0.000  0.750  0.000-
  14  0.000  0.750  0.250-
  15  0.000  0.750  0.500-
  16  0.000  0.750  0.750-
  17  0.250  0.000  0.000-
  18  0.250  0.000  0.250-
  19  0.250  0.000  0.500-
  20  0.250  0.000  0.750-
  21  0.250  0.250  0.000-
  22  0.250  0.250  0.250-
  23  0.250  0.250  0.500-
  24  0.250  0.250  0.750-
  25  0.250  0.500  0.000-
  26  0.250  0.500  0.250-
  27  0.250  0.500  0.500-
  28  0.250  0.500  0.750-
  29  0.250  0.750  0.000-
  30  0.250  0.750  0.250-
  31  0.250  0.750  0.500-
  32  0.250  0.750  0.750-
  33  0.500  0.000  0.000-
  34  0.500  0.000  0.250-
  35  0.500  0.000  0.500-
  36  0.500  0.000  0.750-
  37  0.500  0.250  0.000-
  38  0.500  0.250  0.250-
  39  0.500  0.250  0.500-
  40  0.500  0.250  0.750-
  41  0.500  0.500  0.000-
  42  0.500  0.500  0.250-
  43  0.500  0.500  0.500-
  44  0.500  0.500  0.750-
  45  0.500  0.750  0.000-
  46  0.500  0.750  0.250-
  47  0.500  0.750  0.500-
  48  0.500  0.750  0.750-
  49  0.750  0.000  0.000-
  50  0.750  0.000  0.250-
  51  0.750  0.000  0.500-
  52  0.750  0.000  0.750-
  53  0.750  0.250  0.000-
  54  0.750  0.250  0.250-
  55  0.750  0.250  0.500-
  56  0.750  0.250  0.750-
  57  0.750  0.500  0.000-
  58  0.750  0.500  0.250-
  59  0.750  0.500  0.500-
  60  0.750  0.500  0.750-
  61  0.750  0.750  0.000-
  62  0.750  0.750  0.250-
  63  0.750  0.750  0.500-
  64  0.750  0.750  0.750-
 
  LATTYP: Found a face centered cubic cell.
 ALAT       =    14.7345000000
  
  Lattice vectors:
  
 A1 = (   0.0000000000,   7.3672500000,   7.3672500000)
 A2 = (   7.3672500000,   0.0000000000,   7.3672500000)
 A3 = (   7.3672500000,   7.3672500000,   0.0000000000)


Analysis of symmetry for initial positions (statically):
=====================================================================
 Subroutine PRICEL returns following result:
 
  LATTYP: Found a face centered cubic cell.
 ALAT       =     3.6836250000
  
  Lattice vectors:
  
 A1 = (   0.0000000000,   1.8418125000,   1.8418125000)
 A2 = (   1.8418125000,   0.0000000000,   1.8418125000)
 A3 = (   1.8418125000,   1.8418125000,   0.0000000000)
 
  64 primitive cells build up your supercell.
 

 Routine SETGRP: Setting up the symmetry group for a 
 face centered cubic supercell.


 Subroutine GETGRP returns: Found 48 space group operations
 (whereof 48 operations were pure point group operations)
 out of a pool of 48 trial point group operations.


The static configuration has the point symmetry O_h .


Analysis of symmetry for dynamics (positions and initial velocities):
=====================================================================
 Subroutine PRICEL returns following result:
 
  LATTYP: Found a face centered cubic cell.
 ALAT       =     3.6836250000
  
  Lattice vectors:
  
 A1 = (   0.0000000000,   1.8418125000,   1.8418125000)
 A2 = (   1.8418125000,   0.0000000000,   1.8418125000)
 A3 = (   1.8418125000,   1.8418125000,   0.0000000000)
 
  64 primitive cells build up your supercell.
 

 Routine SETGRP: Setting up the symmetry group for a 
 face centered cubic supercell.


 Subroutine GETGRP returns: Found 48 space group operations
 (whereof 48 operations were pure point group operations)
 out of a pool of 48 trial point group operations.


The dynamic configuration has the point symmetry O_h .


Analysis of structural, dynamic, and magnetic symmetry:
=====================================================================
 Subroutine PRICEL returns following result:
 
  LATTYP: Found a face centered cubic cell.
 ALAT       =     3.6836250000
  
  Lattice vectors:
  
 A1 = (   0.0000000000,   1.8418125000,   1.8418125000)
 A2 = (   1.8418125000,   0.0000000000,   1.8418125000)
 A3 = (   1.8418125000,   1.8418125000,   0.0000000000)
 
  64 primitive cells build up your supercell.
 

 Routine SETGRP: Setting up the symmetry group for a 
 face centered cubic supercell.


 Subroutine GETGRP returns: Found 48 space group operations
 (whereof 48 operations were pure point group operations)
 out of a pool of 48 trial point group operations.


The magnetic configuration has the point symmetry O_h .


 Subroutine INISYM returns: Found 48 space group operations
 (whereof 48 operations are pure point group operations),
 and found    64 'primitive' translations

 
 
 KPOINTS: Zr 15x15x15                             

Automatic generation of k-mesh.
Space group operators:
 irot       det(A)        alpha          n_x          n_y          n_z        tau_x        tau_y        tau_z
    1     1.000000     0.000000     1.000000     0.000000     0.000000     0.000000     0.000000     0.000000
    2    -1.000000     0.000000     1.000000     0.000000     0.000000     0.000000     0.000000     0.000000
    3     1.000000   120.000000    -0.577350    -0.577350    -0.577350     0.000000     0.000000     0.000000
    4    -1.000000   120.000000    -0.577350    -0.577350    -0.577350     0.000000     0.000000     0.000000
    5     1.000000   120.000000     0.577350     0.577350     0.577350     0.000000     0.000000     0.000000
    6    -1.000000   120.000000     0.577350     0.577350     0.577350     0.000000     0.000000     0.000000
    7     1.000000    90.000000     0.000000     0.000000    -1.000000     0.000000     0.000000     0.000000
    8    -1.000000    90.000000     0.000000     0.000000    -1.000000     0.000000     0.000000     0.000000
    9     1.000000   180.000000     0.000000     0.707107     0.707107     0.000000     0.000000     0.000000
   10    -1.000000   180.000000     0.000000     0.707107     0.707107     0.000000     0.000000     0.000000
   11     1.000000    90.000000     0.000000     1.000000     0.000000     0.000000     0.000000     0.000000
   12    -1.000000    90.000000     0.000000     1.000000     0.000000     0.000000     0.000000     0.000000
   13     1.000000   179.999999     0.000000     0.000000     1.000000     0.000000     0.000000     0.000000
   14    -1.000000   179.999999     0.000000     0.000000     1.000000     0.000000     0.000000     0.000000
   15     1.000000   120.000000    -0.577350     0.577350     0.577350     0.000000     0.000000     0.000000
   16    -1.000000   120.000000    -0.577350     0.577350     0.577350     0.000000     0.000000     0.000000
   17     1.000000   120.000000    -0.577350     0.577350    -0.577350     0.000000     0.000000     0.000000
   18    -1.000000   120.000000    -0.577350     0.577350    -0.577350     0.000000     0.000000     0.000000
   19     1.000000    90.000000     0.000000     0.000000     1.000000     0.000000     0.000000     0.000000
   20    -1.000000    90.000000     0.000000     0.000000     1.000000     0.000000     0.000000     0.000000
   21     1.000000    90.000000    -1.000000     0.000000     0.000000     0.000000     0.000000     0.000000
   22    -1.000000    90.000000    -1.000000     0.000000     0.000000     0.000000     0.000000     0.000000
   23     1.000000   180.000000     0.707107     0.000000     0.707107     0.000000     0.000000     0.000000
   24    -1.000000   180.000000     0.707107     0.000000     0.707107     0.000000     0.000000     0.000000
   25     1.000000   120.000000     0.577350    -0.577350     0.577350     0.000000     0.000000     0.000000
   26    -1.000000   120.000000     0.577350    -0.577350     0.577350     0.000000     0.000000     0.000000
   27     1.000000   120.000000    -0.577350    -0.577350     0.577350     0.000000     0.000000     0.000000
   28    -1.000000   120.000000    -0.577350    -0.577350     0.577350     0.000000     0.000000     0.000000
   29     1.000000   180.000000     1.000000     0.000000     0.000000     0.000000     0.000000     0.000000
   30    -1.000000   180.000000     1.000000     0.000000     0.000000     0.000000     0.000000     0.000000
   31     1.000000    90.000000     0.000000    -1.000000     0.000000     0.000000     0.000000     0.000000
   32    -1.000000    90.000000     0.000000    -1.000000     0.000000     0.000000     0.000000     0.000000
   33     1.000000   180.000000     0.707107     0.707107     0.000000     0.000000     0.000000     0.000000
   34    -1.000000   180.000000     0.707107     0.707107     0.000000     0.000000     0.000000     0.000000
   35     1.000000    90.000000     1.000000     0.000000     0.000000     0.000000     0.000000     0.000000
   36    -1.000000    90.000000     1.000000     0.000000     0.000000     0.000000     0.000000     0.000000
   37     1.000000   120.000000     0.577350    -0.577350    -0.577350     0.000000     0.000000     0.000000
   38    -1.000000   120.000000     0.577350    -0.577350    -0.577350     0.000000     0.000000     0.000000
   39     1.000000   180.000000     0.000000     1.000000     0.000000     0.000000     0.000000     0.000000
   40    -1.000000   180.000000     0.000000     1.000000     0.000000     0.000000     0.000000     0.000000
   41     1.000000   120.000000     0.577350     0.577350    -0.577350     0.000000     0.000000     0.000000
   42    -1.000000   120.000000     0.577350     0.577350    -0.577350     0.000000     0.000000     0.000000
   43     1.000000   180.000000     0.000000    -0.707107     0.707107     0.000000     0.000000     0.000000
   44    -1.000000   180.000000     0.000000    -0.707107     0.707107     0.000000     0.000000     0.000000
   45     1.000000   180.000000     0.707107    -0.707107     0.000000     0.000000     0.000000     0.000000
   46    -1.000000   180.000000     0.707107    -0.707107     0.000000     0.000000     0.000000     0.000000
   47     1.000000   180.000000     0.707107     0.000000    -0.707107     0.000000     0.000000     0.000000
   48    -1.000000   180.000000     0.707107     0.000000    -0.707107     0.000000     0.000000     0.000000
 
 Subroutine IBZKPT returns following result:
 ===========================================
 
 Found     10 irreducible k-points:
 
 Following reciprocal coordinates:
            Coordinates               Weight
  0.000000  0.000000  0.000000      1.000000
  0.200000  0.000000  0.000000      8.000000
  0.400000  0.000000  0.000000      8.000000
  0.200000  0.200000  0.000000      6.000000
  0.400000  0.200000  0.000000     24.000000
 -0.400000  0.200000  0.000000     24.000000
 -0.200000  0.200000  0.000000     12.000000
  0.400000  0.400000  0.000000      6.000000
 -0.400000  0.400000  0.000000     12.000000
 -0.400000  0.400000  0.200000     24.000000
 
 Following cartesian coordinates:
            Coordinates               Weight
  0.000000  0.000000  0.000000      1.000000
 -0.013574  0.013574  0.013574      8.000000
 -0.027147  0.027147  0.027147      8.000000
  0.000000  0.000000  0.027147      6.000000
 -0.013574  0.013574  0.040721     24.000000
  0.040721 -0.040721 -0.013574     24.000000
  0.027147 -0.027147  0.000000     12.000000
  0.000000  0.000000  0.054294      6.000000
  0.054294 -0.054294  0.000000     12.000000
  0.067868 -0.040721 -0.013574     24.000000
 
 
 Subroutine IBZKPT_HF returns following result:
 ==============================================
 
 Found    125 k-points in 1st BZ
 the following    125 k-points will be used (e.g. in the exchange kernel)
 Following reciprocal coordinates:   # in IRBZ
  0.000000  0.000000  0.000000    0.00800000   1 t-inv F
  0.200000  0.000000  0.000000    0.00800000   2 t-inv F
  0.400000  0.000000  0.000000    0.00800000   3 t-inv F
  0.200000  0.200000  0.000000    0.00800000   4 t-inv F
  0.400000  0.200000  0.000000    0.00800000   5 t-inv F
 -0.400000  0.200000  0.000000    0.00800000   6 t-inv F
 -0.200000  0.200000  0.000000    0.00800000   7 t-inv F
  0.400000  0.400000  0.000000    0.00800000   8 t-inv F
 -0.400000  0.400000  0.000000    0.00800000   9 t-inv F
 -0.400000  0.400000  0.200000    0.00800000  10 t-inv F
 -0.200000  0.000000  0.000000    0.00800000   2 t-inv F
  0.000000  0.200000  0.000000    0.00800000   2 t-inv F
  0.000000 -0.200000  0.000000    0.00800000   2 t-inv F
  0.000000  0.000000  0.200000    0.00800000   2 t-inv F
  0.000000  0.000000 -0.200000    0.00800000   2 t-inv F
  0.200000  0.200000  0.200000    0.00800000   2 t-inv F
 -0.200000 -0.200000 -0.200000    0.00800000   2 t-inv F
 -0.400000  0.000000  0.000000    0.00800000   3 t-inv F
  0.000000  0.400000  0.000000    0.00800000   3 t-inv F
  0.000000 -0.400000  0.000000    0.00800000   3 t-inv F
  0.000000  0.000000  0.400000    0.00800000   3 t-inv F
  0.000000  0.000000 -0.400000    0.00800000   3 t-inv F
  0.400000  0.400000  0.400000    0.00800000   3 t-inv F
 -0.400000 -0.400000 -0.400000    0.00800000   3 t-inv F
 -0.200000 -0.200000  0.000000    0.00800000   4 t-inv F
  0.000000  0.200000  0.200000    0.00800000   4 t-inv F
  0.000000 -0.200000 -0.200000    0.00800000   4 t-inv F
  0.200000  0.000000  0.200000    0.00800000   4 t-inv F
 -0.200000  0.000000 -0.200000    0.00800000   4 t-inv F
 -0.400000 -0.200000  0.000000    0.00800000   5 t-inv F
  0.000000  0.400000  0.200000    0.00800000   5 t-inv F
  0.000000 -0.400000 -0.200000    0.00800000   5 t-inv F
  0.200000  0.000000  0.400000    0.00800000   5 t-inv F
 -0.200000  0.000000 -0.400000    0.00800000   5 t-inv F
  0.200000  0.200000 -0.200000    0.00800000   5 t-inv F
 -0.200000 -0.200000  0.200000    0.00800000   5 t-inv F
  0.400000  0.200000  0.400000    0.00800000   5 t-inv F
 -0.400000 -0.200000 -0.400000    0.00800000   5 t-inv F
  0.200000  0.400000  0.000000    0.00800000   5 t-inv F
 -0.200000 -0.400000  0.000000    0.00800000   5 t-inv F
  0.200000 -0.200000 -0.200000    0.00800000   5 t-inv F
 -0.200000  0.200000  0.200000    0.00800000   5 t-inv F
  0.400000  0.400000  0.200000    0.00800000   5 t-inv F
 -0.400000 -0.400000 -0.200000    0.00800000   5 t-inv F
  0.000000  0.200000  0.400000    0.00800000   5 t-inv F
  0.000000 -0.200000 -0.400000    0.00800000   5 t-inv F
 -0.200000  0.200000 -0.200000    0.00800000   5 t-inv F
  0.200000 -0.200000  0.200000    0.00800000   5 t-inv F
  0.200000  0.400000  0.400000    0.00800000   5 t-inv F
 -0.200000 -0.400000 -0.400000    0.00800000   5 t-inv F
  0.400000  0.000000  0.200000    0.00800000   5 t-inv F
 -0.400000  0.000000 -0.200000    0.00800000   5 t-inv F
  0.400000 -0.200000  0.000000    0.00800000   6 t-inv F
  0.000000 -0.400000  0.200000    0.00800000   6 t-inv F
  0.000000  0.400000 -0.200000    0.00800000   6 t-inv F
  0.200000  0.000000 -0.400000    0.00800000   6 t-inv F
 -0.200000  0.000000  0.400000    0.00800000   6 t-inv F
  0.200000  0.200000  0.600000    0.00800000   6 t-inv F
 -0.200000 -0.200000 -0.600000    0.00800000   6 t-inv F
 -0.400000 -0.600000 -0.400000    0.00800000   6 t-inv F
  0.400000  0.600000  0.400000    0.00800000   6 t-inv F
  0.200000 -0.400000  0.000000    0.00800000   6 t-inv F
 -0.200000  0.400000  0.000000    0.00800000   6 t-inv F
 -0.600000 -0.200000 -0.200000    0.00800000   6 t-inv F
  0.600000  0.200000  0.200000    0.00800000   6 t-inv F
 -0.400000 -0.400000 -0.600000    0.00800000   6 t-inv F
  0.400000  0.400000  0.600000    0.00800000   6 t-inv F
  0.000000  0.200000 -0.400000    0.00800000   6 t-inv F
  0.000000 -0.200000  0.400000    0.00800000   6 t-inv F
 -0.200000 -0.600000 -0.200000    0.00800000   6 t-inv F
  0.200000  0.600000  0.200000    0.00800000   6 t-inv F
 -0.600000 -0.400000 -0.400000    0.00800000   6 t-inv F
  0.600000  0.400000  0.400000    0.00800000   6 t-inv F
 -0.400000  0.000000  0.200000    0.00800000   6 t-inv F
  0.400000  0.000000 -0.200000    0.00800000   6 t-inv F
  0.200000 -0.200000  0.000000    0.00800000   7 t-inv F
  0.000000 -0.200000  0.200000    0.00800000   7 t-inv F
  0.000000  0.200000 -0.200000    0.00800000   7 t-inv F
  0.200000  0.000000 -0.200000    0.00800000   7 t-inv F
 -0.200000  0.000000  0.200000    0.00800000   7 t-inv F
  0.200000  0.200000  0.400000    0.00800000   7 t-inv F
 -0.200000 -0.200000 -0.400000    0.00800000   7 t-inv F
 -0.200000 -0.400000 -0.200000    0.00800000   7 t-inv F
  0.200000  0.400000  0.200000    0.00800000   7 t-inv F
 -0.400000 -0.200000 -0.200000    0.00800000   7 t-inv F
  0.400000  0.200000  0.200000    0.00800000   7 t-inv F
 -0.400000 -0.400000  0.000000    0.00800000   8 t-inv F
  0.000000  0.400000  0.400000    0.00800000   8 t-inv F
  0.000000 -0.400000 -0.400000    0.00800000   8 t-inv F
  0.400000  0.000000  0.400000    0.00800000   8 t-inv F
 -0.400000  0.000000 -0.400000    0.00800000   8 t-inv F
  0.400000 -0.400000  0.000000    0.00800000   9 t-inv F
  0.000000 -0.400000  0.400000    0.00800000   9 t-inv F
  0.000000  0.400000 -0.400000    0.00800000   9 t-inv F
  0.400000  0.000000 -0.400000    0.00800000   9 t-inv F
 -0.400000  0.000000  0.400000    0.00800000   9 t-inv F
  0.400000  0.400000  0.800000    0.00800000   9 t-inv F
 -0.400000 -0.400000 -0.800000    0.00800000   9 t-inv F
 -0.400000 -0.800000 -0.400000    0.00800000   9 t-inv F
  0.400000  0.800000  0.400000    0.00800000   9 t-inv F
 -0.800000 -0.400000 -0.400000    0.00800000   9 t-inv F
  0.800000  0.400000  0.400000    0.00800000   9 t-inv F
  0.400000 -0.400000 -0.200000    0.00800000  10 t-inv F
  0.200000 -0.400000  0.400000    0.00800000  10 t-inv F
 -0.200000  0.400000 -0.400000    0.00800000  10 t-inv F
  0.400000  0.200000 -0.400000    0.00800000  10 t-inv F
 -0.400000 -0.200000  0.400000    0.00800000  10 t-inv F
  0.400000  0.200000  0.800000    0.00800000  10 t-inv F
 -0.400000 -0.200000 -0.800000    0.00800000  10 t-inv F
 -0.400000 -0.800000 -0.600000    0.00800000  10 t-inv F
  0.400000  0.800000  0.600000    0.00800000  10 t-inv F
  0.200000  0.600000 -0.200000    0.00800000  10 t-inv F
 -0.200000 -0.600000  0.200000    0.00800000  10 t-inv F
  0.200000 -0.600000 -0.200000    0.00800000  10 t-inv F
 -0.200000  0.600000  0.200000    0.00800000  10 t-inv F
 -0.800000 -0.200000 -0.400000    0.00800000  10 t-inv F
  0.800000  0.200000  0.400000    0.00800000  10 t-inv F
 -0.600000 -0.400000 -0.800000    0.00800000  10 t-inv F
  0.600000  0.400000  0.800000    0.00800000  10 t-inv F
 -0.200000  0.200000  0.600000    0.00800000  10 t-inv F
  0.200000 -0.200000 -0.600000    0.00800000  10 t-inv F
 -0.400000 -0.800000 -0.200000    0.00800000  10 t-inv F
  0.400000  0.800000  0.200000    0.00800000  10 t-inv F
 -0.800000 -0.600000 -0.400000    0.00800000  10 t-inv F
  0.800000  0.600000  0.400000    0.00800000  10 t-inv F


--------------------------------------------------------------------------------------------------------




 Dimension of arrays:
   k-points           NKPTS =     10   k-points in BZ     NKDIM =     10   number of bands    NBANDS=    648
   number of dos      NEDOS =    301   number of ions     NIONS =     64
   non local maximal  LDIM  =      6   non local SUM 2l+1 LMDIM =     18
   total plane-waves  NPLWV = 343000
   max r-space proj   IRMAX =   5407   max aug-charges    IRDMAX=   9668
   dimension x,y,z NGX =    70 NGY =   70 NGZ =   70
   dimension x,y,z NGXF=   140 NGYF=  140 NGZF=  140
   support grid    NGXF=   140 NGYF=  140 NGZF=  140
   ions per type =              64
 NGX,Y,Z   is equivalent  to a cutoff of  11.17, 11.17, 11.17 a.u.
 NGXF,Y,Z  is equivalent  to a cutoff of  22.34, 22.34, 22.34 a.u.


 I would recommend the setting:
   dimension x,y,z NGX =    65 NGY =   65 NGZ =   65
 SYSTEM =  phonon of Zr bcc - omiga                
 POSCAR =  Supercell by Yi Wang                    

 Startparameter for this run:
   NWRITE =      0    write-flag & timer
   PREC   = a         normal or accurate (medium, high low for compatibility)
   ISTART =      0    job   : 0-new  1-cont  2-samecut
   ICHARG =      2    charge: 1-file 2-atom 10-const
   ISPIN  =      2    spin polarized calculation?
   LNONCOLLINEAR =      F non collinear calculations
   LSORBIT =      F    spin-orbit coupling
   INIWAV =      1    electr: 0-lowe 1-rand  2-diag
   LASPH  =      F    aspherical Exc in radial PAW
   METAGGA=      F    non-selfconsistent MetaGGA calc.

 Electronic Relaxation 1
   ENCUT  =  367.9 eV  27.04 Ry    5.20 a.u.  16.30 16.30 16.30*2*pi/ulx,y,z
   ENINI  =  367.9     initial cutoff
   ENAUG  =  703.4 eV  augmentation charge cutoff
   NELM   =     60;   NELMIN=  2; NELMDL=  0     # of ELM steps 
   EDIFF  = 0.1E-05   stopping-criterion for ELM
   LREAL  =      T    real-space projection
   NLSPLINE    = F    spline interpolate recip. space projectors
   LCOMPAT=      F    compatible to vasp.4.4
   GGA_COMPAT  = T    GGA compatible to vasp.4.4-vasp.4.6
   LMAXPAW     = -100 max onsite density
   LMAXMIX     =    2 max onsite mixed and CHGCAR
   VOSKOWN=      0    Vosko Wilk Nusair interpolation
   ROPT   =   -0.00025
 Ionic relaxation
   EDIFFG = 0.1E-04   stopping-criterion for IOM
   NSW    =    805    number of steps for IOM
   NBLOCK =      1;   KBLOCK =      1    inner block; outer block 
   IBRION =      6    ionic relax: 0-MD 1-quasi-New 2-CG
   NFREE  =      2    steps in history (QN), initial steepest desc. (CG)
   ISIF   =      2    stress and relaxation
   IWAVPR =     11    prediction:  0-non 1-charg 2-wave 3-comb
   ISYM   =      2    0-nonsym 1-usesym 2-fastsym
   LCORR  =      T    Harris-Foulkes like correction to forces

   POTIM  = 0.5000    time-step for ionic-motion
   TEIN   =    0.0    initial temperature
   TEBEG  =    0.0;   TEEND  =   0.0 temperature during run
   SMASS  =  -3.00    Nose mass-parameter (am)
   estimated Nose-frequenzy (Omega)   =  0.10E-29 period in steps =****** mass=  -0.248E-26a.u.
   SCALEE = 1.0000    scale energy and forces
   NPACO  =    256;   APACO  = 16.0  distance and # of slots for P.C.
   PSTRESS=    0.0 pullay stress

  Mass of Ions in am
   POMASS =  58.69
  Ionic Valenz
   ZVAL   =  16.00
  Atomic Wigner-Seitz radii
   RWIGS  =  -1.00
  virtual crystal weights 
   VCA    =   1.00
   NELECT =    1024.0000    total number of electrons
   NUPDOWN=      -1.0000    fix difference up-down

 DOS related values:
   EMIN   =  10.00;   EMAX   =-10.00  energy-range for DOS
   EFERMI =   0.00
   ISMEAR =     1;   SIGMA  =   0.20  broadening in eV -4-tet -1-fermi 0-gaus

 Electronic relaxation 2 (details)
   IALGO  =     38    algorithm
   LDIAG  =      T    sub-space diagonalisation (order eigenvalues)
   LSUBROT=      F    optimize rotation matrix (better conditioning)
   TURBO    =      0    0=normal 1=particle mesh
   IRESTART =      0    0=no restart 2=restart with 2 vectors
   NREBOOT  =      0    no. of reboots
   NMIN     =      0    reboot dimension
   EREF     =   0.00    reference energy to select bands
   IMIX   =      4    mixing-type and parameters
     AMIX     =   0.40;   BMIX     =  1.00
     AMIX_MAG =   1.60;   BMIX_MAG =  1.00
     AMIN     =   0.10
     WC   =   100.;   INIMIX=   1;  MIXPRE=   1;  MAXMIX= -45

 Intra band minimization:
   WEIMIN = 0.0010     energy-eigenvalue tresh-hold
   EBREAK =  0.39E-09  absolut break condition
   DEPER  =   0.30     relativ break condition  

   TIME   =   0.40     timestep for ELM

  volume/ion in A,a.u.               =      12.50        84.33
  Fermi-wavevector in a.u.,A,eV,Ry     =   1.777704  3.359373 42.997552  3.160231
  Thomas-Fermi vector in A             =   2.843044
 
 Write flags
   LWAVE  =      T    write WAVECAR
   LCHARG =      T    write CHGCAR
   LVTOT  =      F    write LOCPOT, total local potential
   LVHAR  =      F    write LOCPOT, Hartree potential only
   LELF   =      F    write electronic localiz. function (ELF)
   LORBIT =      0    0 simple, 1 ext, 2 COOP (PROOUT)


 Dipole corrections
   LMONO  =      F    monopole corrections only (constant potential shift)
   LDIPOL =      F    correct potential (dipole corrections)
   IDIPOL =      0    1-x, 2-y, 3-z, 4-all directions 
   EPSILON=  1.0000000 bulk dielectric constant

 Exchange correlation treatment:
   GGA     =    --    GGA type
   LEXCH   =     8    internal setting for exchange type
   VOSKOWN=      0    Vosko Wilk Nusair interpolation
   LHFCALC =     F    Hartree Fock is set to
   LHFONE  =     F    Hartree Fock one center treatment
   AEXX    =    0.0000 exact exchange contribution

 Linear response parameters
   LEPSILON=     F    determine dielectric tensor
   LRPA    =     F    only Hartree local field effects (RPA)
   LNABLA  =     F    use nabla operator in PAW spheres
   LVEL    =     F    velocity operator in full k-point grid
   LINTERFAST=   F  fast interpolation
   KINTER  =     0    interpolate to denser k-point grid
   CSHIFT  =0.1000    complex shift for real part using Kramers Kronig
   OMEGAMAX=  -1.0    maximum frequency
   DEG_THRESHOLD= 0.2000000E-02 threshold for treating states as degnerate
   RTIME   =    0.100 relaxation time in fs

 Orbital magnetization related:
   ORBITALMAG=     F  switch on orbital magnetization
   LCHIMAG   =     F  perturbation theory with respect to B field
   DQ        =  0.001000  dq finite difference perturbation B field



--------------------------------------------------------------------------------------------------------


 finite differences with symmetry
 charge density and potential will be updated during run
 spin polarized calculation
 Variant of blocked Davidson
 Davidson routine will perform the subspace rotation
 perform sub-space diagonalisation
    after iterative eigenvector-optimisation
 modified Broyden-mixing scheme, WC =      100.0
 initial mixing is a Kerker type mixing with AMIX =  0.4000 and BMIX =      1.0000
 Hartree-type preconditioning will be used
 using additional bands          136
 real space projection scheme for non local part
 use partial core corrections
 calculate Harris-corrections to forces 
   (improved forces if not selfconsistent)
 use gradient corrections 
 use of overlap-Matrix (Vanderbilt PP)
 Methfessel and Paxton  Order N= 1 SIGMA  =   0.20


--------------------------------------------------------------------------------------------------------


  energy-cutoff  :      367.94
  volume of cell :      799.74
      direct lattice vectors                 reciprocal lattice vectors
     0.000000000  7.367250000  7.367250000    -0.067867929  0.067867929  0.067867929
     7.367250000  0.000000000  7.367250000     0.067867929 -0.067867929  0.067867929
     7.367250000  7.367250000  0.000000000     0.067867929  0.067867929 -0.067867929

  length of vectors
    10.418864867 10.418864867 10.418864867     0.117550701  0.117550701  0.117550701


 
 k-points in units of 2pi/SCALE and weight: Zr 15x15x15                             
   0.00000000  0.00000000  0.00000000       0.008
  -0.01357359  0.01357359  0.01357359       0.064
  -0.02714717  0.02714717  0.02714717       0.064
   0.00000000  0.00000000  0.02714717       0.048
  -0.01357359  0.01357359  0.04072076       0.192
   0.04072076 -0.04072076 -0.01357359       0.192
   0.02714717 -0.02714717  0.00000000       0.096
   0.00000000  0.00000000  0.05429434       0.048
   0.05429434 -0.05429434  0.00000000       0.096
   0.06786793 -0.04072076 -0.01357359       0.192
 
 k-points in reciprocal lattice and weights: Zr 15x15x15                             
   0.00000000  0.00000000  0.00000000       0.008
   0.20000000  0.00000000  0.00000000       0.064
   0.40000000  0.00000000  0.00000000       0.064
   0.20000000  0.20000000  0.00000000       0.048
   0.40000000  0.20000000  0.00000000       0.192
  -0.40000000  0.20000000  0.00000000       0.192
  -0.20000000  0.20000000  0.00000000       0.096
   0.40000000  0.40000000  0.00000000       0.048
  -0.40000000  0.40000000  0.00000000       0.096
  -0.40000000  0.40000000  0.20000000       0.192
 
 position of ions in fractional coordinates (direct lattice) 
   0.00000000  0.00000000  0.00000000
   0.00000000  0.00000000  0.25000000
   0.00000000  0.00000000  0.50000000
   0.00000000  0.00000000  0.75000000
   0.00000000  0.25000000  0.00000000
   0.00000000  0.25000000  0.25000000
   0.00000000  0.25000000  0.50000000
   0.00000000  0.25000000  0.75000000
   0.00000000  0.50000000  0.00000000
   0.00000000  0.50000000  0.25000000
   0.00000000  0.50000000  0.50000000
   0.00000000  0.50000000  0.75000000
   0.00000000  0.75000000  0.00000000
   0.00000000  0.75000000  0.25000000
   0.00000000  0.75000000  0.50000000
   0.00000000  0.75000000  0.75000000
   0.25000000  0.00000000  0.00000000
   0.25000000  0.00000000  0.25000000
   0.25000000  0.00000000  0.50000000
   0.25000000  0.00000000  0.75000000
   0.25000000  0.25000000  0.00000000
   0.25000000  0.25000000  0.25000000
   0.25000000  0.25000000  0.50000000
   0.25000000  0.25000000  0.75000000
   0.25000000  0.50000000  0.00000000
   0.25000000  0.50000000  0.25000000
   0.25000000  0.50000000  0.50000000
   0.25000000  0.50000000  0.75000000
   0.25000000  0.75000000  0.00000000
   0.25000000  0.75000000  0.25000000
   0.25000000  0.75000000  0.50000000
   0.25000000  0.75000000  0.75000000
   0.50000000  0.00000000  0.00000000
   0.50000000  0.00000000  0.25000000
   0.50000000  0.00000000  0.50000000
   0.50000000  0.00000000  0.75000000
   0.50000000  0.25000000  0.00000000
   0.50000000  0.25000000  0.25000000
   0.50000000  0.25000000  0.50000000
   0.50000000  0.25000000  0.75000000
   0.50000000  0.50000000  0.00000000
   0.50000000  0.50000000  0.25000000
   0.50000000  0.50000000  0.50000000
   0.50000000  0.50000000  0.75000000
   0.50000000  0.75000000  0.00000000
   0.50000000  0.75000000  0.25000000
   0.50000000  0.75000000  0.50000000
   0.50000000  0.75000000  0.75000000
   0.75000000  0.00000000  0.00000000
   0.75000000  0.00000000  0.25000000
   0.75000000  0.00000000  0.50000000
   0.75000000  0.00000000  0.75000000
   0.75000000  0.25000000  0.00000000
   0.75000000  0.25000000  0.25000000
   0.75000000  0.25000000  0.50000000
   0.75000000  0.25000000  0.75000000
   0.75000000  0.50000000  0.00000000
   0.75000000  0.50000000  0.25000000
   0.75000000  0.50000000  0.50000000
   0.75000000  0.50000000  0.75000000
   0.75000000  0.75000000  0.00000000
   0.75000000  0.75000000  0.25000000
   0.75000000  0.75000000  0.50000000
   0.75000000  0.75000000  0.75000000
 
 position of ions in cartesian coordinates  (Angst):
   0.00000000  0.00000000  0.00000000
   1.84181250  1.84181250  0.00000000
   3.68362500  3.68362500  0.00000000
   5.52543750  5.52543750  0.00000000
   1.84181250  0.00000000  1.84181250
   3.68362500  1.84181250  1.84181250
   5.52543750  3.68362500  1.84181250
   7.36725000  5.52543750  1.84181250
   3.68362500  0.00000000  3.68362500
   5.52543750  1.84181250  3.68362500
   7.36725000  3.68362500  3.68362500
   9.20906250  5.52543750  3.68362500
   5.52543750  0.00000000  5.52543750
   7.36725000  1.84181250  5.52543750
   9.20906250  3.68362500  5.52543750
  11.05087500  5.52543750  5.52543750
   0.00000000  1.84181250  1.84181250
   1.84181250  3.68362500  1.84181250
   3.68362500  5.52543750  1.84181250
   5.52543750  7.36725000  1.84181250
   1.84181250  1.84181250  3.68362500
   3.68362500  3.68362500  3.68362500
   5.52543750  5.52543750  3.68362500
   7.36725000  7.36725000  3.68362500
   3.68362500  1.84181250  5.52543750
   5.52543750  3.68362500  5.52543750
   7.36725000  5.52543750  5.52543750
   9.20906250  7.36725000  5.52543750
   5.52543750  1.84181250  7.36725000
   7.36725000  3.68362500  7.36725000
   9.20906250  5.52543750  7.36725000
  11.05087500  7.36725000  7.36725000
   0.00000000  3.68362500  3.68362500
   1.84181250  5.52543750  3.68362500
   3.68362500  7.36725000  3.68362500
   5.52543750  9.20906250  3.68362500
   1.84181250  3.68362500  5.52543750
   3.68362500  5.52543750  5.52543750
   5.52543750  7.36725000  5.52543750
   7.36725000  9.20906250  5.52543750
   3.68362500  3.68362500  7.36725000
   5.52543750  5.52543750  7.36725000
   7.36725000  7.36725000  7.36725000
   9.20906250  9.20906250  7.36725000
   5.52543750  3.68362500  9.20906250
   7.36725000  5.52543750  9.20906250
   9.20906250  7.36725000  9.20906250
  11.05087500  9.20906250  9.20906250
   0.00000000  5.52543750  5.52543750
   1.84181250  7.36725000  5.52543750
   3.68362500  9.20906250  5.52543750
   5.52543750 11.05087500  5.52543750
   1.84181250  5.52543750  7.36725000
   3.68362500  7.36725000  7.36725000
   5.52543750  9.20906250  7.36725000
   7.36725000 11.05087500  7.36725000
   3.68362500  5.52543750  9.20906250
   5.52543750  7.36725000  9.20906250
   7.36725000  9.20906250  9.20906250
   9.20906250 11.05087500  9.20906250
   5.52543750  5.52543750 11.05087500
   7.36725000  7.36725000 11.05087500
   9.20906250  9.20906250 11.05087500
  11.05087500 11.05087500 11.05087500
 


--------------------------------------------------------------------------------------------------------


 k-point  1 :   0.0000 0.0000 0.0000  plane waves:   12891
 k-point  2 :   0.2000 0.0000 0.0000  plane waves:   12822
 k-point  3 :   0.4000 0.0000 0.0000  plane waves:   12821
 k-point  4 :   0.2000 0.2000 0.0000  plane waves:   12819
 k-point  5 :   0.4000 0.2000 0.0000  plane waves:   12829
 k-point  6 :  -0.4000 0.2000 0.0000  plane waves:   12813
 k-point  7 :  -0.2000 0.2000 0.0000  plane waves:   12808
 k-point  8 :   0.4000 0.4000 0.0000  plane waves:   12827
 k-point  9 :  -0.4000 0.4000 0.0000  plane waves:   12790
 k-point 10 :  -0.4000 0.4000 0.2000  plane waves:   12834

 maximum and minimum number of plane-waves per node :     12891    12790

 maximum number of plane-waves:     12891
 maximum index in each direction: 
   IXMAX=   16   IYMAX=   16   IZMAX=   16
   IXMIN=  -16   IYMIN=  -16   IZMIN=  -16

 NGX is ok and might be reduce to  66
 NGY is ok and might be reduce to  66
 NGZ is ok and might be reduce to  66

 serial   3D FFT for wavefunctions
 parallel 3D FFT for charge:
    minimum data exchange during FFTs selected (reduces bandwidth)


 total amount of memory used by VASP on root node   920639. kBytes
========================================================================

   base      :      30000. kBytes
   nonlr-proj:      58329. kBytes
   fftplans  :      24743. kBytes
   grid      :      77537. kBytes
   one-center:       1990. kBytes
   wavefun   :     728040. kBytes
 
     INWAV:  cpu time    0.0010: real time    0.0000
 Broyden mixing: mesh for mixing (old mesh)
   NGX = 33   NGY = 33   NGZ = 33
  (NGX  =140   NGY  =140   NGZ  =140)
  gives a total of  35937 points

 initial charge density was supplied:
 charge density of overlapping atoms calculated
 number of electron    1024.0000000 magnetization      64.0000000
 keeping initial charge density in first step


--------------------------------------------------------------------------------------------------------


 Maximum index for non-local projection operator         5233
 Maximum index for augmentation-charges         2349 (set IRDMAX)


--------------------------------------------------------------------------------------------------------


 First call to EWALD:  gamma=   0.191
 Maximum number of real-space cells 3x 3x 3
 Maximum number of reciprocal cells 3x 3x 3

 FEWALD executed in parallel
    FEWALD:  cpu time    0.0070: real time    0.0068


----------------------------------------- Iteration    1(   1)  ---------------------------------------


    POTLOK:  cpu time    0.8259: real time    0.8242
    SETDIJ:  cpu time    0.1050: real time    0.1050
     EDDAV:  cpu time  407.4471: real time  407.1127
       DOS:  cpu time    0.0100: real time    0.0092
    --------------------------------------------
      LOOP:  cpu time  408.3879: real time  408.0541

 eigenvalue-minimisations  : 30560
 total energy-change (2. order) : 0.1346356E+05  (-0.5572001E+05)
 number of electron    1024.0000000 magnetization      64.0000000
 augmentation part     1024.0000000 magnetization      64.0000000

 Free energy of the ion-electron system (eV)
  ---------------------------------------------------
  alpha Z        PSCENC =      8628.10280496
  Ewald energy   TEWEN  =   -146823.96742904
  -Hartree energ DENC   =    -65868.69495599
  -exchange      EXHF   =         0.00000000
  -V(xc)+E(xc)   XCENC  =      5689.77156659
  PAW double counting   =    172361.15642774  -181272.45834873
  entropy T*S    EENTRO =        -0.00369033
  eigenvalues    EBANDS =     -3263.63680702
  atomic energy  EATOM  =    224013.29143063
  Solvation  Ediel_sol  =         0.00000000
  ---------------------------------------------------
  free energy    TOTEN  =     13463.56099882 eV

  energy without entropy =    13463.56468914  energy(sigma->0) =    13463.56222893


--------------------------------------------------------------------------------------------------------




----------------------------------------- Iteration    1(   2)  ---------------------------------------


     EDDAV:  cpu time  358.2955: real time  358.0014
       DOS:  cpu time    0.0090: real time    0.0096
    --------------------------------------------
      LOOP:  cpu time  358.3045: real time  358.0115

 eigenvalue-minimisations  : 25920
 total energy-change (2. order) :-0.1275320E+05  (-0.1236574E+05)
 number of electron    1024.0000000 magnetization      64.0000000
 augmentation part     1024.0000000 magnetization      64.0000000

 Free energy of the ion-electron system (eV)
  ---------------------------------------------------
  alpha Z        PSCENC =      8628.10280496
  Ewald energy   TEWEN  =   -146823.96742904
  -Hartree energ DENC   =    -65868.69495599
  -exchange      EXHF   =         0.00000000
  -V(xc)+E(xc)   XCENC  =      5689.77156659
  PAW double counting   =    172361.15642774  -181272.45834873
  entropy T*S    EENTRO =         0.00615197
  eigenvalues    EBANDS =    -16016.84545607
  atomic energy  EATOM  =    224013.29143063
  Solvation  Ediel_sol  =         0.00000000
  ---------------------------------------------------
  free energy    TOTEN  =       710.36219207 eV

  energy without entropy =      710.35604010  energy(sigma->0) =      710.36014141


--------------------------------------------------------------------------------------------------------




----------------------------------------- Iteration    1(   3)  ---------------------------------------


     EDDAV:  cpu time  366.7212: real time  366.4202
       DOS:  cpu time    0.0100: real time    0.0103
    --------------------------------------------
      LOOP:  cpu time  366.7322: real time  366.4311

 eigenvalue-minimisations  : 26792
 total energy-change (2. order) :-0.1077027E+04  (-0.8863015E+03)
 number of electron    1024.0000000 magnetization      64.0000000
 augmentation part     1024.0000000 magnetization      64.0000000

 Free energy of the ion-electron system (eV)
  ---------------------------------------------------
  alpha Z        PSCENC =      8628.10280496
  Ewald energy   TEWEN  =   -146823.96742904
  -Hartree energ DENC   =    -65868.69495599
  -exchange      EXHF   =         0.00000000
  -V(xc)+E(xc)   XCENC  =      5689.77156659
  PAW double counting   =    172361.15642774  -181272.45834873
  entropy T*S    EENTRO =         0.05956654
  eigenvalues    EBANDS =    -17093.92607935
  atomic energy  EATOM  =    224013.29143063
  Solvation  Ediel_sol  =         0.00000000
  ---------------------------------------------------
  free energy    TOTEN  =      -366.66501664 eV

  energy without entropy =     -366.72458319  energy(sigma->0) =     -366.68487216


--------------------------------------------------------------------------------------------------------




----------------------------------------- Iteration    1(   4)  ---------------------------------------


     EDDAV:  cpu time  380.0262: real time  379.7150
       DOS:  cpu time    0.0100: real time    0.0106
    --------------------------------------------
      LOOP:  cpu time  380.0372: real time  379.7262

 eigenvalue-minimisations  : 27888
 total energy-change (2. order) :-0.5622511E+02  (-0.5477557E+02)
 number of electron    1024.0000000 magnetization      64.0000000
 augmentation part     1024.0000000 magnetization      64.0000000

 Free energy of the ion-electron system (eV)
  ---------------------------------------------------
  alpha Z        PSCENC =      8628.10280496
  Ewald energy   TEWEN  =   -146823.96742904
  -Hartree energ DENC   =    -65868.69495599
  -exchange      EXHF   =         0.00000000
  -V(xc)+E(xc)   XCENC  =      5689.77156659
  PAW double counting   =    172361.15642774  -181272.45834873
  entropy T*S    EENTRO =         0.13637785
  eigenvalues    EBANDS =    -17150.22799827
  atomic energy  EATOM  =    224013.29143063
  Solvation  Ediel_sol  =         0.00000000
  ---------------------------------------------------
  free energy    TOTEN  =      -422.89012425 eV

  energy without entropy =     -423.02650210  energy(sigma->0) =     -422.93558353


--------------------------------------------------------------------------------------------------------




----------------------------------------- Iteration    1(   5)  ---------------------------------------


     EDDAV:  cpu time  375.3039: real time  374.9972
       DOS:  cpu time    0.0110: real time    0.0104
    CHARGE:  cpu time   19.3121: real time   19.2966
    MIXING:  cpu time    0.0160: real time    0.0154
    --------------------------------------------
      LOOP:  cpu time  394.6440: real time  394.3202

 eigenvalue-minimisations  : 27448
 total energy-change (2. order) :-0.8570449E+00  (-0.8563485E+00)
 number of electron    1024.0004231 magnetization      60.2722307
 augmentation part      572.5170753 magnetization      47.4122138

 Broyden mixing:
  rms(total) = 0.68392E+01    rms(broyden)= 0.68367E+01
  rms(prec ) = 0.92133E+01
  weight for this iteration     100.00

 Free energy of the ion-electron system (eV)
  ---------------------------------------------------
  alpha Z        PSCENC =      8628.10280496
  Ewald energy   TEWEN  =   -146823.96742904
  -Hartree energ DENC   =    -65868.69495599
  -exchange      EXHF   =         0.00000000
  -V(xc)+E(xc)   XCENC  =      5689.77156659
  PAW double counting   =    172361.15642774  -181272.45834873
  entropy T*S    EENTRO =         0.13721037
  eigenvalues    EBANDS =    -17151.08587568
  atomic energy  EATOM  =    224013.29143063
  Solvation  Ediel_sol  =         0.00000000
  ---------------------------------------------------
  free energy    TOTEN  =      -423.74716914 eV

  energy without entropy =     -423.88437951  energy(sigma->0) =     -423.79290593


--------------------------------------------------------------------------------------------------------




----------------------------------------- Iteration    1(   6)  ---------------------------------------


    POTLOK:  cpu time    0.8479: real time    0.8471
    SETDIJ:  cpu time    0.1050: real time    0.1050
     EDDAV:  cpu time  373.7002: real time  373.3942
       DOS:  cpu time    0.0100: real time    0.0104
    CHARGE:  cpu time   18.5142: real time   18.4986
    MIXING:  cpu time    0.0160: real time    0.0155
    --------------------------------------------
      LOOP:  cpu time  393.1942: real time  392.8715

 eigenvalue-minimisations  : 27264
 total energy-change (2. order) : 0.2295601E+02  (-0.6760866E+02)
 number of electron    1024.0004732 magnetization      53.0107761
 augmentation part      635.1486210 magnetization      48.8477196

 Broyden mixing:
  rms(total) = 0.59988E+01    rms(broyden)= 0.59983E+01
  rms(prec ) = 0.74660E+01
  weight for this iteration     100.00

 eigenvalues of (default mixing * dielectric matrix)
  average eigenvalue GAMMA=   0.4986
  0.4986

 Free energy of the ion-electron system (eV)
  ---------------------------------------------------
  alpha Z        PSCENC =      8628.10280496
  Ewald energy   TEWEN  =   -146823.96742904
  -Hartree energ DENC   =    -62496.46036540
  -exchange      EXHF   =         0.00000000
  -V(xc)+E(xc)   XCENC  =      5563.33997376
  PAW double counting   =    167101.63511636  -175680.91221283
  entropy T*S    EENTRO =        -0.39865036
  eigenvalues    EBANDS =    -20705.42182993
  atomic energy  EATOM  =    224013.29143063
  Solvation  Ediel_sol  =         0.00000000
  ---------------------------------------------------
  free energy    TOTEN  =      -400.79116186 eV

  energy without entropy =     -400.39251149  energy(sigma->0) =     -400.65827840


--------------------------------------------------------------------------------------------------------




----------------------------------------- Iteration    1(   7)  ---------------------------------------


    POTLOK:  cpu time    0.8469: real time    0.8464
    SETDIJ:  cpu time    0.1060: real time    0.1060
     EDDAV:  cpu time  379.7263: real time  379.4158
       DOS:  cpu time    0.0110: real time    0.0107
    CHARGE:  cpu time   19.6520: real time   19.6354
    MIXING:  cpu time    0.0170: real time    0.0164
    --------------------------------------------
      LOOP:  cpu time  400.3591: real time  400.0315

 eigenvalue-minimisations  : 27096
 total energy-change (2. order) : 0.3920166E+02  (-0.1461740E+02)
 number of electron    1024.0004503 magnetization      46.3599884
 augmentation part      606.8647009 magnetization      38.0435984

 Broyden mixing:
  rms(total) = 0.58180E+00    rms(broyden)= 0.58108E+00
  rms(prec ) = 0.67355E+00
  weight for this iteration     100.00

 eigenvalues of (default mixing * dielectric matrix)
  average eigenvalue GAMMA=   0.7942
  1.0372  0.5512

 Free energy of the ion-electron system (eV)
  ---------------------------------------------------
  alpha Z        PSCENC =      8628.10280496
  Ewald energy   TEWEN  =   -146823.96742904
  -Hartree energ DENC   =    -63826.77631040
  -exchange      EXHF   =         0.00000000
  -V(xc)+E(xc)   XCENC  =      5612.21619253
  PAW double counting   =    169820.30326404  -178683.34926942
  entropy T*S    EENTRO =        -0.25299994
  eigenvalues    EBANDS =    -19101.15718116
  atomic energy  EATOM  =    224013.29143063
  Solvation  Ediel_sol  =         0.00000000
  ---------------------------------------------------
  free energy    TOTEN  =      -361.58949780 eV

  energy without entropy =     -361.33649786  energy(sigma->0) =     -361.50516449


--------------------------------------------------------------------------------------------------------




----------------------------------------- Iteration    1(   8)  ---------------------------------------


    POTLOK:  cpu time    0.8629: real time    0.8632
    SETDIJ:  cpu time    0.1070: real time    0.1062
     EDDAV:  cpu time  384.6665: real time  384.3766
       DOS:  cpu time    0.0090: real time    0.0095
    CHARGE:  cpu time   19.7130: real time   19.6960
    MIXING:  cpu time    0.0170: real time    0.0171
    --------------------------------------------
      LOOP:  cpu time  405.3754: real time  405.0693

 eigenvalue-minimisations  : 26984
 total energy-change (2. order) :-0.1530993E+00  (-0.1385801E+00)
 number of electron    1024.0004499 magnetization      41.8933247
 augmentation part      606.2464147 magnetization      34.8456708

 Broyden mixing:
  rms(total) = 0.29157E+00    rms(broyden)= 0.29150E+00
  rms(prec ) = 0.37214E+00
  weight for this iteration     100.00

 eigenvalues of (default mixing * dielectric matrix)
  average eigenvalue GAMMA=   1.0901
  0.5578  0.8913  1.8213

 Free energy of the ion-electron system (eV)
  ---------------------------------------------------
  alpha Z        PSCENC =      8628.10280496
  Ewald energy   TEWEN  =   -146823.96742904
  -Hartree energ DENC   =    -63721.96343176
  -exchange      EXHF   =         0.00000000
  -V(xc)+E(xc)   XCENC  =      5609.06352445
  PAW double counting   =    170273.08217247  -179229.84905015
  entropy T*S    EENTRO =        -0.23779956
  eigenvalues    EBANDS =    -19109.26481911
  atomic energy  EATOM  =    224013.29143063
  Solvation  Ediel_sol  =         0.00000000
  ---------------------------------------------------
  free energy    TOTEN  =      -361.74259711 eV

  energy without entropy =     -361.50479755  energy(sigma->0) =     -361.66333059


--------------------------------------------------------------------------------------------------------




----------------------------------------- Iteration    1(   9)  ---------------------------------------


    POTLOK:  cpu time    0.8669: real time    0.8666
    SETDIJ:  cpu time    0.1060: real time    0.1060
     EDDAV:  cpu time  393.5042: real time  393.1935
       DOS:  cpu time    0.0100: real time    0.0105
    CHARGE:  cpu time   19.8140: real time   19.7982
    MIXING:  cpu time    0.0180: real time    0.0180
    --------------------------------------------
      LOOP:  cpu time  414.3200: real time  413.9936

 eigenvalue-minimisations  : 27768
 total energy-change (2. order) : 0.1464916E-01  (-0.2087615E-01)
 number of electron    1024.0004506 magnetization      41.7399035
 augmentation part      606.9659495 magnetization      35.7818233

 Broyden mixing:
  rms(total) = 0.10693E+00    rms(broyden)= 0.10692E+00
  rms(prec ) = 0.10861E+00
  weight for this iteration     100.00

 eigenvalues of (default mixing * dielectric matrix)
  average eigenvalue GAMMA=   1.1350
  2.2911  1.0730  0.5641  0.6118

 Free energy of the ion-electron system (eV)
  ---------------------------------------------------
  alpha Z        PSCENC =      8628.10280496
  Ewald energy   TEWEN  =   -146823.96742904
  -Hartree energ DENC   =    -63592.14961505
  -exchange      EXHF   =         0.00000000
  -V(xc)+E(xc)   XCENC  =      5604.97435400
  PAW double counting   =    170594.29744008  -179612.55600559
  entropy T*S    EENTRO =        -0.23725263
  eigenvalues    EBANDS =    -19173.48367533
  atomic energy  EATOM  =    224013.29143063
  Solvation  Ediel_sol  =         0.00000000
  ---------------------------------------------------
  free energy    TOTEN  =      -361.72794796 eV

  energy without entropy =     -361.49069533  energy(sigma->0) =     -361.64886375


--------------------------------------------------------------------------------------------------------




----------------------------------------- Iteration    1(  10)  ---------------------------------------


    POTLOK:  cpu time    0.8619: real time    0.8610
    SETDIJ:  cpu time    0.1070: real time    0.1069
     EDDAV:  cpu time  411.2675: real time  410.9307
       DOS:  cpu time    0.0100: real time    0.0103
    CHARGE:  cpu time   19.4610: real time   19.4447
    MIXING:  cpu time    0.0190: real time    0.0185
    --------------------------------------------
      LOOP:  cpu time  431.7264: real time  431.3729

 eigenvalue-minimisations  : 29400
 total energy-change (2. order) :-0.4340972E-02  (-0.1189911E-02)
 number of electron    1024.0004505 magnetization      42.2548012
 augmentation part      606.9814366 magnetization      36.3895384

 Broyden mixing:
  rms(total) = 0.26260E-01    rms(broyden)= 0.26251E-01
  rms(prec ) = 0.29089E-01
  weight for this iteration     100.00

 eigenvalues of (default mixing * dielectric matrix)
  average eigenvalue GAMMA=   1.1563
  2.2540  1.3880  0.9534  0.5589  0.6270

 Free energy of the ion-electron system (eV)
  ---------------------------------------------------
  alpha Z        PSCENC =      8628.10280496
  Ewald energy   TEWEN  =   -146823.96742904
  -Hartree energ DENC   =    -63581.64747138
  -exchange      EXHF   =         0.00000000
  -V(xc)+E(xc)   XCENC  =      5604.78268348
  PAW double counting   =    170678.06871498  -179702.57438439
  entropy T*S    EENTRO =        -0.23711072
  eigenvalues    EBANDS =    -19177.55152745
  atomic energy  EATOM  =    224013.29143063
  Solvation  Ediel_sol  =         0.00000000
  ---------------------------------------------------
  free energy    TOTEN  =      -361.73228893 eV

  energy without entropy =     -361.49517821  energy(sigma->0) =     -361.65325202


--------------------------------------------------------------------------------------------------------




----------------------------------------- Iteration    1(  11)  ---------------------------------------


    POTLOK:  cpu time    0.8569: real time    0.8563
    SETDIJ:  cpu time    0.1070: real time    0.1066
     EDDAV:  cpu time  384.5385: real time  385.4322
       DOS:  cpu time    0.0110: real time    0.0104
    CHARGE:  cpu time   19.5790: real time   19.5637
    MIXING:  cpu time    0.0200: real time    0.0194
    --------------------------------------------
      LOOP:  cpu time  405.1134: real time  405.9895

 eigenvalue-minimisations  : 26960
 total energy-change (2. order) :-0.1413127E-02  (-0.3499554E-03)
 number of electron    1024.0004504 magnetization      42.3545324
 augmentation part      606.8618921 magnetization      36.4180387

 Broyden mixing:
  rms(total) = 0.13377E-01    rms(broyden)= 0.13351E-01
  rms(prec ) = 0.16344E-01
  weight for this iteration     100.00

 eigenvalues of (default mixing * dielectric matrix)
  average eigenvalue GAMMA=   1.2207
  2.1756  2.1756  1.0890  0.5564  0.6807  0.6472

 Free energy of the ion-electron system (eV)
  ---------------------------------------------------
  alpha Z        PSCENC =      8628.10280496
  Ewald energy   TEWEN  =   -146823.96742904
  -Hartree energ DENC   =    -63588.15008858
  -exchange      EXHF   =         0.00000000
  -V(xc)+E(xc)   XCENC  =      5605.08456335
  PAW double counting   =    170753.62489461  -179777.45935306
  entropy T*S    EENTRO =        -0.23696022
  eigenvalues    EBANDS =    -19172.02356470
  atomic energy  EATOM  =    224013.29143063
  Solvation  Ediel_sol  =         0.00000000
  ---------------------------------------------------
  free energy    TOTEN  =      -361.73370206 eV

  energy without entropy =     -361.49674184  energy(sigma->0) =     -361.65471532


--------------------------------------------------------------------------------------------------------




----------------------------------------- Iteration    1(  12)  ---------------------------------------


    POTLOK:  cpu time    0.8649: real time    0.8648
    SETDIJ:  cpu time    0.1070: real time    0.1068
     EDDAV:  cpu time  393.3042: real time  392.9856
       DOS:  cpu time    0.0100: real time    0.0103
    CHARGE:  cpu time   18.7372: real time   18.7212
    MIXING:  cpu time    0.0210: real time    0.0201
    --------------------------------------------
      LOOP:  cpu time  413.0442: real time  412.7096

 eigenvalue-minimisations  : 27840
 total energy-change (2. order) :-0.1835883E-03  (-0.4803169E-04)
 number of electron    1024.0004505 magnetization      42.3340054
 augmentation part      606.9002553 magnetization      36.3689952

 Broyden mixing:
  rms(total) = 0.56161E-02    rms(broyden)= 0.56156E-02
  rms(prec ) = 0.60689E-02
  weight for this iteration     100.00

 eigenvalues of (default mixing * dielectric matrix)
  average eigenvalue GAMMA=   1.2248
  2.4288  1.9779  1.3153  0.5578  0.6252  0.8341  0.8341

 Free energy of the ion-electron system (eV)
  ---------------------------------------------------
  alpha Z        PSCENC =      8628.10280496
  Ewald energy   TEWEN  =   -146823.96742904
  -Hartree energ DENC   =    -63585.68171692
  -exchange      EXHF   =         0.00000000
  -V(xc)+E(xc)   XCENC  =      5604.99023700
  PAW double counting   =    170775.45203424  -179799.27984629
  entropy T*S    EENTRO =        -0.23755551
  eigenvalues    EBANDS =    -19174.40384472
  atomic energy  EATOM  =    224013.29143063
  Solvation  Ediel_sol  =         0.00000000
  ---------------------------------------------------
  free energy    TOTEN  =      -361.73388565 eV

  energy without entropy =     -361.49633014  energy(sigma->0) =     -361.65470048


--------------------------------------------------------------------------------------------------------




----------------------------------------- Iteration    1(  13)  ---------------------------------------


    POTLOK:  cpu time    0.8509: real time    0.8506
    SETDIJ:  cpu time    0.1060: real time    0.1061
     EDDAV:  cpu time  362.9558: real time  362.6583
       DOS:  cpu time    0.0110: real time    0.0105
    CHARGE:  cpu time   18.7442: real time   18.7289
    MIXING:  cpu time    0.0210: real time    0.0210
    --------------------------------------------
      LOOP:  cpu time  382.6888: real time  382.3761

 eigenvalue-minimisations  : 25816
 total energy-change (2. order) :-0.2826826E-04  (-0.1013865E-04)
 number of electron    1024.0004505 magnetization      42.3283764
 augmentation part      606.9181459 magnetization      36.3536390

 Broyden mixing:
  rms(total) = 0.15028E-02    rms(broyden)= 0.15016E-02
  rms(prec ) = 0.18754E-02
  weight for this iteration     100.00

 eigenvalues of (default mixing * dielectric matrix)
  average eigenvalue GAMMA=   1.2106
  2.4762  1.7495  1.7495  1.0214  0.5581  0.6231  0.7537  0.7537

 Free energy of the ion-electron system (eV)
  ---------------------------------------------------
  alpha Z        PSCENC =      8628.10280496
  Ewald energy   TEWEN  =   -146823.96742904
  -Hartree energ DENC   =    -63584.62745085
  -exchange      EXHF   =         0.00000000
  -V(xc)+E(xc)   XCENC  =      5604.94146430
  PAW double counting   =    170780.94594225  -179804.79087644
  entropy T*S    EENTRO =        -0.23750778
  eigenvalues    EBANDS =    -19175.39229194
  atomic energy  EATOM  =    224013.29143063
  Solvation  Ediel_sol  =         0.00000000
  ---------------------------------------------------
  free energy    TOTEN  =      -361.73391391 eV

  energy without entropy =     -361.49640613  energy(sigma->0) =     -361.65474465


--------------------------------------------------------------------------------------------------------




----------------------------------------- Iteration    1(  14)  ---------------------------------------


    POTLOK:  cpu time    0.8339: real time    0.8336
    SETDIJ:  cpu time    0.1050: real time    0.1054
     EDDAV:  cpu time  308.4581: real time  308.2045
       DOS:  cpu time    0.0100: real time    0.0103
    CHARGE:  cpu time   18.7851: real time   18.7693
    MIXING:  cpu time    0.0220: real time    0.0220
    --------------------------------------------
      LOOP:  cpu time  328.2151: real time  327.9460

 eigenvalue-minimisations  : 20768
 total energy-change (2. order) : 0.6746210E-05  (-0.4998727E-06)
 number of electron    1024.0004505 magnetization      42.3258415
 augmentation part      606.9161977 magnetization      36.3502813

 Broyden mixing:
  rms(total) = 0.83841E-03    rms(broyden)= 0.83780E-03
  rms(prec ) = 0.11000E-02
  weight for this iteration     100.00

 eigenvalues of (default mixing * dielectric matrix)
  average eigenvalue GAMMA=   1.2692
  2.5038  2.0506  2.0506  1.2735  0.8524  0.8524  0.5578  0.6265  0.6548

 Free energy of the ion-electron system (eV)
  ---------------------------------------------------
  alpha Z        PSCENC =      8628.10280496
  Ewald energy   TEWEN  =   -146823.96742904
  -Hartree energ DENC   =    -63584.84329826
  -exchange      EXHF   =         0.00000000
  -V(xc)+E(xc)   XCENC  =      5604.94834736
  PAW double counting   =    170784.45955618  -179808.21627604
  entropy T*S    EENTRO =        -0.23747410
  eigenvalues    EBANDS =    -19175.27156885
  atomic energy  EATOM  =    224013.29143063
  Solvation  Ediel_sol  =         0.00000000
  ---------------------------------------------------
  free energy    TOTEN  =      -361.73390717 eV

  energy without entropy =     -361.49643307  energy(sigma->0) =     -361.65474914


--------------------------------------------------------------------------------------------------------




----------------------------------------- Iteration    1(  15)  ---------------------------------------


    POTLOK:  cpu time    0.8269: real time    0.8270
    SETDIJ:  cpu time    0.1050: real time    0.1049
     EDDAV:  cpu time  260.0985: real time  259.8845
       DOS:  cpu time    0.0100: real time    0.0103
    CHARGE:  cpu time   18.6002: real time   18.5852
    MIXING:  cpu time    0.0240: real time    0.0231
    --------------------------------------------
      LOOP:  cpu time  279.6655: real time  279.4357

 eigenvalue-minimisations  : 16280
 total energy-change (2. order) : 0.1207588E-04  (-0.2249222E-06)
 number of electron    1024.0004505 magnetization      42.3272323
 augmentation part      606.9125434 magnetization      36.3517513

 Broyden mixing:
  rms(total) = 0.36221E-03    rms(broyden)= 0.36212E-03
  rms(prec ) = 0.37240E-03
  weight for this iteration     100.00

 eigenvalues of (default mixing * dielectric matrix)
  average eigenvalue GAMMA=   1.2844
  2.6161  2.4292  1.6888  1.6888  0.9828  0.8563  0.5578  0.7587  0.6271  0.6379

 Free energy of the ion-electron system (eV)
  ---------------------------------------------------
  alpha Z        PSCENC =      8628.10280496
  Ewald energy   TEWEN  =   -146823.96742904
  -Hartree energ DENC   =    -63585.24469756
  -exchange      EXHF   =         0.00000000
  -V(xc)+E(xc)   XCENC  =      5604.96312347
  PAW double counting   =    170787.81946033  -179811.40882279
  entropy T*S    EENTRO =        -0.23744729
  eigenvalues    EBANDS =    -19175.05231779
  atomic energy  EATOM  =    224013.29143063
  Solvation  Ediel_sol  =         0.00000000
  ---------------------------------------------------
  free energy    TOTEN  =      -361.73389509 eV

  energy without entropy =     -361.49644780  energy(sigma->0) =     -361.65474599


--------------------------------------------------------------------------------------------------------




----------------------------------------- Iteration    1(  16)  ---------------------------------------


    POTLOK:  cpu time    0.8319: real time    0.8313
    SETDIJ:  cpu time    0.1060: real time    0.1056
     EDDAV:  cpu time  230.3890: real time  230.1999
       DOS:  cpu time    0.0100: real time    0.0105
    CHARGE:  cpu time   18.6262: real time   18.6108
    MIXING:  cpu time    0.0250: real time    0.0243
    --------------------------------------------
      LOOP:  cpu time  249.9880: real time  249.7831

 eigenvalue-minimisations  : 13576
 total energy-change (2. order) : 0.2243585E-05  (-0.3239063E-07)
 number of electron    1024.0004505 magnetization      42.3272533
 augmentation part      606.9129442 magnetization      36.3523241

 Broyden mixing:
  rms(total) = 0.57654E-04    rms(broyden)= 0.57441E-04
  rms(prec ) = 0.74127E-04
  weight for this iteration     100.00

 eigenvalues of (default mixing * dielectric matrix)
  average eigenvalue GAMMA=   1.2371
  2.6207  2.4143  1.7018  1.7018  1.0312  0.8565  0.8031  0.5579  0.6199  0.6507
  0.6507

 Free energy of the ion-electron system (eV)
  ---------------------------------------------------
  alpha Z        PSCENC =      8628.10280496
  Ewald energy   TEWEN  =   -146823.96742904
  -Hartree energ DENC   =    -63585.26957091
  -exchange      EXHF   =         0.00000000
  -V(xc)+E(xc)   XCENC  =      5604.96468352
  PAW double counting   =    170788.21356656  -179811.75858044
  entropy T*S    EENTRO =        -0.23745257
  eigenvalues    EBANDS =    -19175.07334555
  atomic energy  EATOM  =    224013.29143063
  Solvation  Ediel_sol  =         0.00000000
  ---------------------------------------------------
  free energy    TOTEN  =      -361.73389285 eV

  energy without entropy =     -361.49644028  energy(sigma->0) =     -361.65474199


--------------------------------------------------------------------------------------------------------




----------------------------------------- Iteration    1(  17)  ---------------------------------------


    POTLOK:  cpu time    0.8319: real time    0.8314
    SETDIJ:  cpu time    0.1060: real time    0.1055
     EDDAV:  cpu time  229.3671: real time  229.1788
       DOS:  cpu time    0.0100: real time    0.0103
    --------------------------------------------
      LOOP:  cpu time  230.3150: real time  230.1277

 eigenvalue-minimisations  : 13536
 total energy-change (2. order) :-0.2789311E-06  (-0.2730596E-08)
 number of electron    1024.0004505 magnetization      42.3272533
 augmentation part      606.9129442 magnetization      36.3523241

 Free energy of the ion-electron system (eV)
  ---------------------------------------------------
  alpha Z        PSCENC =      8628.10280496
  Ewald energy   TEWEN  =   -146823.96742904
  -Hartree energ DENC   =    -63585.25470636
  -exchange      EXHF   =         0.00000000
  -V(xc)+E(xc)   XCENC  =      5604.96418306
  PAW double counting   =    170788.10673909  -179811.65500948
  entropy T*S    EENTRO =        -0.23745397
  eigenvalues    EBANDS =    -19175.08445202
  atomic energy  EATOM  =    224013.29143063
  Solvation  Ediel_sol  =         0.00000000
  ---------------------------------------------------
  free energy    TOTEN  =      -361.73389313 eV

  energy without entropy =     -361.49643916  energy(sigma->0) =     -361.65474180


--------------------------------------------------------------------------------------------------------




 average (electrostatic) potential at core
  the test charge radii are     0.8614
  (the norm of the test charge is              1.0000)
       1 -80.7968       2 -80.7968       3 -80.7968       4 -80.7968       5 -80.7968
       6 -80.7968       7 -80.7968       8 -80.7968       9 -80.7968      10 -80.7968
      11 -80.7968      12 -80.7968      13 -80.7968      14 -80.7968      15 -80.7968
      16 -80.7968      17 -80.7968      18 -80.7968      19 -80.7968      20 -80.7968
      21 -80.7968      22 -80.7968      23 -80.7968      24 -80.7968      25 -80.7968
      26 -80.7968      27 -80.7968      28 -80.7968      29 -80.7968      30 -80.7968
      31 -80.7968      32 -80.7968      33 -80.7968      34 -80.7968      35 -80.7968
      36 -80.7968      37 -80.7968      38 -80.7968      39 -80.7968      40 -80.7968
      41 -80.7968      42 -80.7968      43 -80.7968      44 -80.7968      45 -80.7968
      46 -80.7968      47 -80.7968      48 -80.7968      49 -80.7968      50 -80.7968
      51 -80.7968      52 -80.7968      53 -80.7968      54 -80.7968      55 -80.7968
      56 -80.7968      57 -80.7968      58 -80.7968      59 -80.7968      60 -80.7968
      61 -80.7968      62 -80.7968      63 -80.7968      64 -80.7968
 
 
 
 E-fermi :   6.2673     XC(G=0): -12.9182     alpha+bet :-12.9573


 spin component 1

 k-point     1 :       0.0000    0.0000    0.0000
  band No.  band energies     occupation 
      1     -57.5519      1.00000
      2     -57.5519      1.00000
      3     -57.5519      1.00000
      4     -57.5519      1.00000
      5     -57.5441      1.00000
      6     -57.5441      1.00000
      7     -57.5441      1.00000
      8     -57.5277      1.00000
      9     -57.5277      1.00000
     10     -57.5277      1.00000
     11     -57.5277      1.00000
     12     -57.5277      1.00000
     13     -57.5277      1.00000
     14     -57.5276      1.00000
     15     -57.5276      1.00000
     16     -57.5276      1.00000
     17     -57.5276      1.00000
     18     -57.5276      1.00000
     19     -57.5276      1.00000
     20     -57.5276      1.00000
     21     -57.5276      1.00000
     22     -57.5276      1.00000
     23     -57.5276      1.00000
     24     -57.5276      1.00000
     25     -57.5276      1.00000
     26     -57.5276      1.00000
     27     -57.5276      1.00000
     28     -57.5276      1.00000
     29     -57.5276      1.00000
     30     -57.5276      1.00000
     31     -57.5276      1.00000
     32     -57.5070      1.00000
     33     -57.5070      1.00000
     34     -57.5070      1.00000
     35     -57.5070      1.00000
     36     -57.5070      1.00000
     37     -57.5070      1.00000
     38     -57.5070      1.00000
     39     -57.5070      1.00000
     40     -57.5070      1.00000
     41     -57.5070      1.00000
     42     -57.5070      1.00000
     43     -57.5070      1.00000
     44     -57.5061      1.00000
     45     -57.5061      1.00000
     46     -57.5061      1.00000
     47     -57.5061      1.00000
     48     -57.5061      1.00000
     49     -57.5061      1.00000
     50     -57.5061      1.00000
     51     -57.5061      1.00000
     52     -57.5061      1.00000
     53     -57.5061      1.00000
     54     -57.5061      1.00000
     55     -57.5061      1.00000
     56     -57.4893      1.00000
     57     -57.4893      1.00000
     58     -57.4892      1.00000
     59     -57.4892      1.00000
     60     -57.4892      1.00000
     61     -57.4892      1.00000
     62     -57.4892      1.00000
     63     -57.4892      1.00000
     64     -57.4836      1.00000
     65     -57.4836      1.00000
     66     -57.4836      1.00000
     67     -57.4836      1.00000
     68     -57.4836      1.00000
     69     -57.4836      1.00000
     70     -57.4709      1.00000
     71     -57.4709      1.00000
     72     -57.4709      1.00000
     73     -57.4709      1.00000
     74     -57.4709      1.00000
     75     -57.4709      1.00000
     76     -57.4709      1.00000
     77     -57.4709      1.00000
     78     -57.4709      1.00000
     79     -57.4709      1.00000
     80     -57.4709      1.00000
     81     -57.4709      1.00000
     82     -57.4694      1.00000
     83     -57.4694      1.00000
     84     -57.4694      1.00000
     85     -57.4694      1.00000
     86     -57.4694      1.00000
     87     -57.4694      1.00000
     88     -57.4693      1.00000
     89     -57.4693      1.00000
     90     -57.4693      1.00000
     91     -57.4693      1.00000
     92     -57.4693      1.00000
     93     -57.4693      1.00000
     94     -57.4693      1.00000
     95     -57.4693      1.00000
     96     -57.4693      1.00000
     97     -57.4693      1.00000
     98     -57.4693      1.00000
     99     -57.4693      1.00000
    100     -57.4693      1.00000
    101     -57.4693      1.00000
    102     -57.4693      1.00000
    103     -57.4693      1.00000
    104     -57.4693      1.00000
    105     -57.4693      1.00000
    106     -57.4672      1.00000
    107     -57.4672      1.00000
    108     -57.4672      1.00000
    109     -57.4672      1.00000
    110     -57.4672      1.00000
    111     -57.4672      1.00000
    112     -57.4601      1.00000
    113     -57.4601      1.00000
    114     -57.4601      1.00000
    115     -57.4601      1.00000
    116     -57.4601      1.00000
    117     -57.4601      1.00000
    118     -57.4519      1.00000
    119     -57.4519      1.00000
    120     -57.4519      1.00000
    121     -57.4519      1.00000
    122     -57.4519      1.00000
    123     -57.4519      1.00000
    124     -57.4519      1.00000
    125     -57.4519      1.00000
    126     -57.4519      1.00000
    127     -57.4519      1.00000
    128     -57.4519      1.00000
    129     -57.4519      1.00000
    130     -57.4518      1.00000
    131     -57.4518      1.00000
    132     -57.4518      1.00000
    133     -57.4518      1.00000
    134     -57.4518      1.00000
    135     -57.4518      1.00000
    136     -57.4518      1.00000
    137     -57.4518      1.00000
    138     -57.4518      1.00000
    139     -57.4518      1.00000
    140     -57.4518      1.00000
    141     -57.4518      1.00000
    142     -57.4423      1.00000
    143     -57.4423      1.00000
    144     -57.4423      1.00000
    145     -57.4423      1.00000
    146     -57.4423      1.00000
    147     -57.4423      1.00000
    148     -57.4423      1.00000
    149     -57.4423      1.00000
    150     -57.4423      1.00000
    151     -57.4423      1.00000
    152     -57.4423      1.00000
    153     -57.4423      1.00000
    154     -57.4388      1.00000
    155     -57.4388      1.00000
    156     -57.4388      1.00000
    157     -57.4388      1.00000
    158     -57.4388      1.00000
    159     -57.4388      1.00000
    160     -57.4388      1.00000
    161     -57.4388      1.00000
    162     -57.4292      1.00000
    163     -57.4292      1.00000
    164     -57.4292      1.00000
    165     -57.4292      1.00000
    166     -57.4292      1.00000
    167     -57.4292      1.00000
    168     -57.4291      1.00000
    169     -57.4291      1.00000
    170     -57.4291      1.00000
    171     -57.4291      1.00000
    172     -57.4291      1.00000
    173     -57.4291      1.00000
    174     -57.4241      1.00000
    175     -57.4241      1.00000
    176     -57.4241      1.00000
    177     -57.4241      1.00000
    178     -57.4241      1.00000
    179     -57.4241      1.00000
    180     -57.4240      1.00000
    181     -57.4240      1.00000
    182     -57.4240      1.00000
    183     -57.4240      1.00000
    184     -57.4240      1.00000
    185     -57.4240      1.00000
    186     -57.4240      1.00000
    187     -57.4240      1.00000
    188     -57.4240      1.00000
    189     -57.4240      1.00000
    190     -57.4105      1.00000
    191     -57.4105      1.00000
    192     -57.4105      1.00000
    193      -1.8744      1.00000
    194       0.1659      1.00000
    195       0.1659      1.00000
    196       0.1659      1.00000
    197       0.1659      1.00000
    198       0.1659      1.00000
    199       0.1660      1.00000
    200       0.1660      1.00000
    201       0.1660      1.00000
    202       0.7823      1.00000
    203       0.7823      1.00000
    204       0.7823      1.00000
    205       0.7823      1.00000
    206       0.7823      1.00000
    207       0.7823      1.00000
    208       2.0829      1.00000
    209       2.0829      1.00000
    210       2.0829      1.00000
    211       2.0829      1.00000
    212       2.3213      1.00000
    213       2.3213      1.00000
    214       2.3213      1.00000
    215       2.5480      1.00000
    216       2.5480      1.00000
    217       2.5480      1.00000
    218       2.5480      1.00000
    219       2.5480      1.00000
    220       2.5480      1.00000
    221       2.5480      1.00000
    222       2.5480      1.00000
    223       2.5480      1.00000
    224       2.5480      1.00000
    225       2.5480      1.00000
    226       2.5480      1.00000
    227       2.6893      1.00000
    228       2.6893      1.00000
    229       2.6893      1.00000
    230       2.7476      1.00000
    231       2.7476      1.00000
    232       2.7476      1.00000
    233       2.7476      1.00000
    234       2.7476      1.00000
    235       2.7476      1.00000
    236       2.7476      1.00000
    237       2.7476      1.00000
    238       2.7476      1.00000
    239       2.7476      1.00000
    240       2.7476      1.00000
    241       2.7476      1.00000
    242       2.7476      1.00000
    243       2.7476      1.00000
    244       2.7476      1.00000
    245       2.7476      1.00000
    246       2.7476      1.00000
    247       2.7476      1.00000
    248       2.7476      1.00000
    249       2.7476      1.00000
    250       2.7476      1.00000
    251       2.7476      1.00000
    252       2.7476      1.00000
    253       2.7476      1.00000
    254       3.0711      1.00000
    255       3.0711      1.00000
    256       3.0711      1.00000
    257       3.0711      1.00000
    258       3.0711      1.00000
    259       3.0711      1.00000
    260       3.3172      1.00000
    261       3.3172      1.00000
    262       3.3172      1.00000
    263       3.3172      1.00000
    264       3.3172      1.00000
    265       3.3172      1.00000
    266       3.3172      1.00000
    267       3.3172      1.00000
    268       3.3172      1.00000
    269       3.3172      1.00000
    270       3.3172      1.00000
    271       3.3172      1.00000
    272       3.3172      1.00000
    273       3.3172      1.00000
    274       3.3172      1.00000
    275       3.3173      1.00000
    276       3.3173      1.00000
    277       3.3173      1.00000
    278       3.3173      1.00000
    279       3.3173      1.00000
    280       3.3173      1.00000
    281       3.3173      1.00000
    282       3.3173      1.00000
    283       3.3173      1.00000
    284       3.3813      1.00000
    285       3.3813      1.00000
    286       3.3813      1.00000
    287       3.3813      1.00000
    288       3.3813      1.00000
    289       3.3813      1.00000
    290       3.6104      1.00000
    291       3.6104      1.00000
    292       3.6104      1.00000
    293       3.6104      1.00000
    294       3.6104      1.00000
    295       3.6104      1.00000
    296       3.6104      1.00000
    297       3.6104      1.00000
    298       3.6104      1.00000
    299       3.6104      1.00000
    300       3.6104      1.00000
    301       3.6104      1.00000
    302       3.6106      1.00000
    303       3.6106      1.00000
    304       3.6106      1.00000
    305       3.6106      1.00000
    306       3.6106      1.00000
    307       3.6106      1.00000
    308       3.6107      1.00000
    309       3.6107      1.00000
    310       3.6107      1.00000
    311       3.6107      1.00000
    312       3.6107      1.00000
    313       3.6107      1.00000
    314       3.8690      1.00000
    315       3.8690      1.00000
    316       3.8690      1.00000
[...]
      1.841813  3.683625  1.841813    -0.000700   -0.003695   -0.124943  
      3.683625  5.525438  1.841813    -0.000700   -0.003695   -0.124943  
      5.525438  7.367250  1.841813    -0.000700   -0.003695   -0.124943  
      1.841813  1.841813  3.683625    -0.000700   -0.003695   -0.124943  
      3.683625  3.683625  3.683625    -0.000700   -0.003695   -0.124943  
      5.525438  5.525438  3.683625    -0.000700   -0.003695   -0.124943  
      7.367250  7.367250  3.683625    -0.000700   -0.003695   -0.124943  
      3.683625  1.841813  5.525438    -0.000700   -0.003695   -0.124943  
      5.525438  3.683625  5.525438    -0.000700   -0.003695   -0.124943  
      7.367250  5.525438  5.525438    -0.000700   -0.003695   -0.124943  
      9.209063  7.367250  5.525438    -0.000700   -0.003695   -0.124943  
      5.525438  1.841813  7.367250    -0.000700   -0.003695   -0.124943  
      7.367250  3.683625  7.367250    -0.000700   -0.003695   -0.124943  
      9.209063  5.525438  7.367250    -0.000700   -0.003695   -0.124943  
     11.050875  7.367250  7.367250    -0.000700   -0.003695   -0.124943  
      0.000000  3.683625  3.683625    -0.000700   -0.003695   -0.124943  
      1.841813  5.525438  3.683625    -0.000700   -0.003695   -0.124943  
      3.683625  7.367250  3.683625    -0.000700   -0.003695   -0.124943  
      5.525438  9.209063  3.683625    -0.000700   -0.003695   -0.124943  
      1.841813  3.683625  5.525438    -0.000700   -0.003695   -0.124943  
      3.683625  5.525438  5.525438    -0.000700   -0.003695   -0.124943  
      5.525438  7.367250  5.525438    -0.000700   -0.003695   -0.124943  
      7.367250  9.209063  5.525438    -0.000700   -0.003695   -0.124943  
      3.683625  3.683625  7.367250    -0.000700   -0.003695   -0.124943  
      5.525438  5.525438  7.367250    -0.000700   -0.003695   -0.124943  
      7.367250  7.367250  7.367250    -0.000700   -0.003695   -0.124943  
      9.209063  9.209063  7.367250    -0.000700   -0.003695   -0.124943  
      5.525438  3.683625  9.209063    -0.000700   -0.003695   -0.124943  
      7.367250  5.525438  9.209063    -0.000700   -0.003695   -0.124943  
      9.209063  7.367250  9.209063    -0.000700   -0.003695   -0.124943  
     11.050875  9.209063  9.209063    -0.000700   -0.003695   -0.124943  
      0.000000  5.525438  5.525438    -0.000700   -0.003695   -0.124943  
      1.841813  7.367250  5.525438    -0.000700   -0.003695   -0.124943  
      3.683625  9.209063  5.525438    -0.000700   -0.003695   -0.124943  
      5.525438 11.050875  5.525438    -0.000700   -0.003695   -0.124943  
      1.841813  5.525438  7.367250    -0.000700   -0.003695   -0.124943  
      3.683625  7.367250  7.367250    -0.000700   -0.003695   -0.124943  
      5.525438  9.209063  7.367250    -0.000700   -0.003695   -0.124943  
      7.367250 11.050875  7.367250    -0.000700   -0.003695   -0.124943  
      3.683625  5.525438  9.209063    -0.000700   -0.003695   -0.124943  
      5.525438  7.367250  9.209063    -0.000700   -0.003695   -0.124943  
      7.367250  9.209063  9.209063    -0.000700   -0.003695   -0.124943  
      9.209063 11.050875  9.209063    -0.000700   -0.003695   -0.124943  
      5.525438  5.525438 11.050875    -0.000700   -0.003695   -0.124943  
      7.367250  7.367250 11.050875    -0.000700   -0.003695   -0.124943  
      9.209063  9.209063 11.050875    -0.000700   -0.003695   -0.124943  
     11.050875 11.050875 11.050875    -0.000700   -0.003695   -0.124943  
 
 192 f  =    0.000001 THz     0.000006 2PiTHz    0.000030 cm-1     0.000004 meV
             X         Y         Z           dx          dy          dz
      0.000000  0.000000  0.000000    -0.024514   -0.122515    0.003761  
      1.841813  1.841813  0.000000    -0.024514   -0.122515    0.003761  
      3.683625  3.683625  0.000000    -0.024514   -0.122515    0.003761  
      5.525438  5.525438  0.000000    -0.024514   -0.122515    0.003761  
      1.841813  0.000000  1.841813    -0.024514   -0.122515    0.003761  
      3.683625  1.841813  1.841813    -0.024514   -0.122515    0.003761  
      5.525438  3.683625  1.841813    -0.024514   -0.122515    0.003761  
      7.367250  5.525438  1.841813    -0.024514   -0.122515    0.003761  
      3.683625  0.000000  3.683625    -0.024514   -0.122515    0.003761  
      5.525438  1.841813  3.683625    -0.024514   -0.122515    0.003761  
      7.367250  3.683625  3.683625    -0.024514   -0.122515    0.003761  
      9.209063  5.525438  3.683625    -0.024514   -0.122515    0.003761  
      5.525438  0.000000  5.525438    -0.024514   -0.122515    0.003761  
      7.367250  1.841813  5.525438    -0.024514   -0.122515    0.003761  
      9.209063  3.683625  5.525438    -0.024514   -0.122515    0.003761  
     11.050875  5.525438  5.525438    -0.024514   -0.122515    0.003761  
      0.000000  1.841813  1.841813    -0.024514   -0.122515    0.003761  
      1.841813  3.683625  1.841813    -0.024514   -0.122515    0.003761  
      3.683625  5.525438  1.841813    -0.024514   -0.122515    0.003761  
      5.525438  7.367250  1.841813    -0.024514   -0.122515    0.003761  
      1.841813  1.841813  3.683625    -0.024514   -0.122515    0.003761  
      3.683625  3.683625  3.683625    -0.024514   -0.122515    0.003761  
      5.525438  5.525438  3.683625    -0.024514   -0.122515    0.003761  
      7.367250  7.367250  3.683625    -0.024514   -0.122515    0.003761  
      3.683625  1.841813  5.525438    -0.024514   -0.122515    0.003761  
      5.525438  3.683625  5.525438    -0.024514   -0.122515    0.003761  
      7.367250  5.525438  5.525438    -0.024514   -0.122515    0.003761  
      9.209063  7.367250  5.525438    -0.024514   -0.122515    0.003761  
      5.525438  1.841813  7.367250    -0.024514   -0.122515    0.003761  
      7.367250  3.683625  7.367250    -0.024514   -0.122515    0.003761  
      9.209063  5.525438  7.367250    -0.024514   -0.122515    0.003761  
     11.050875  7.367250  7.367250    -0.024514   -0.122515    0.003761  
      0.000000  3.683625  3.683625    -0.024514   -0.122515    0.003761  
      1.841813  5.525438  3.683625    -0.024514   -0.122515    0.003761  
      3.683625  7.367250  3.683625    -0.024514   -0.122515    0.003761  
      5.525438  9.209063  3.683625    -0.024514   -0.122515    0.003761  
      1.841813  3.683625  5.525438    -0.024514   -0.122515    0.003761  
      3.683625  5.525438  5.525438    -0.024514   -0.122515    0.003761  
      5.525438  7.367250  5.525438    -0.024514   -0.122515    0.003761  
      7.367250  9.209063  5.525438    -0.024514   -0.122515    0.003761  
      3.683625  3.683625  7.367250    -0.024514   -0.122515    0.003761  
      5.525438  5.525438  7.367250    -0.024514   -0.122515    0.003761  
      7.367250  7.367250  7.367250    -0.024514   -0.122515    0.003761  
      9.209063  9.209063  7.367250    -0.024514   -0.122515    0.003761  
      5.525438  3.683625  9.209063    -0.024514   -0.122515    0.003761  
      7.367250  5.525438  9.209063    -0.024514   -0.122515    0.003761  
      9.209063  7.367250  9.209063    -0.024514   -0.122515    0.003761  
     11.050875  9.209063  9.209063    -0.024514   -0.122515    0.003761  
      0.000000  5.525438  5.525438    -0.024514   -0.122515    0.003761  
      1.841813  7.367250  5.525438    -0.024514   -0.122515    0.003761  
      3.683625  9.209063  5.525438    -0.024514   -0.122515    0.003761  
      5.525438 11.050875  5.525438    -0.024514   -0.122515    0.003761  
      1.841813  5.525438  7.367250    -0.024514   -0.122515    0.003761  
      3.683625  7.367250  7.367250    -0.024514   -0.122515    0.003761  
      5.525438  9.209063  7.367250    -0.024514   -0.122515    0.003761  
      7.367250 11.050875  7.367250    -0.024514   -0.122515    0.003761  
      3.683625  5.525438  9.209063    -0.024514   -0.122515    0.003761  
      5.525438  7.367250  9.209063    -0.024514   -0.122515    0.003761  
      7.367250  9.209063  9.209063    -0.024514   -0.122515    0.003761  
      9.209063 11.050875  9.209063    -0.024514   -0.122515    0.003761  
      5.525438  5.525438 11.050875    -0.024514   -0.122515    0.003761  
      7.367250  7.367250 11.050875    -0.024514   -0.122515    0.003761  
      9.209063  9.209063 11.050875    -0.024514   -0.122515    0.003761  
     11.050875 11.050875 11.050875    -0.024514   -0.122515    0.003761  
 

 ELASTIC MODULI CONTR FROM IONIC RELAXATION (kBar)
 Direction    XX          YY          ZZ          XY          YZ          ZX
 --------------------------------------------------------------------------------
 XX          -0.0000      0.0000      0.0000      0.0000     -0.0000     -0.0000
 YY          -0.0000     -0.0000     -0.0000     -0.0000     -0.0000      0.0000
 ZZ          -0.0000     -0.0000     -0.0000     -0.0000     -0.0000     -0.0000
 XY          -0.0000     -0.0000     -0.0000     -0.0000      0.0000      0.0000
 YZ           0.0000      0.0000     -0.0000      0.0000     -0.0000     -0.0000
 ZX           0.0000      0.0000      0.0000      0.0000     -0.0000     -0.0000
 --------------------------------------------------------------------------------



--------------------------------------------------------------------------------------------------------


  LATTYP: Found a face centered cubic cell.
 ALAT       =    14.7345000000
  
  Lattice vectors:
  
 A1 = (   0.0000000000,   7.3672500000,   7.3672500000)
 A2 = (   7.3672500000,   0.0000000000,   7.3672500000)
 A3 = (   7.3672500000,   7.3672500000,   0.0000000000)


Analysis of symmetry for initial positions (statically):
=====================================================================
 Subroutine PRICEL returns following result:
 
  LATTYP: Found a face centered cubic cell.
 ALAT       =     3.6836250000
  
  Lattice vectors:
  
 A1 = (   0.0000000000,   1.8418125000,   1.8418125000)
 A2 = (   1.8418125000,   0.0000000000,   1.8418125000)
 A3 = (   1.8418125000,   1.8418125000,   0.0000000000)
 
  64 primitive cells build up your supercell.
 

 Routine SETGRP: Setting up the symmetry group for a 
 face centered cubic supercell.


 Subroutine GETGRP returns: Found 48 space group operations
 (whereof 48 operations were pure point group operations)
 out of a pool of 48 trial point group operations.


The static configuration has the point symmetry O_h .


Analysis of symmetry for dynamics (positions and initial velocities):
=====================================================================
 Subroutine PRICEL returns following result:
 
  LATTYP: Found a face centered cubic cell.
 ALAT       =     3.6836250000
  
  Lattice vectors:
  
 A1 = (   0.0000000000,   1.8418125000,   1.8418125000)
 A2 = (   1.8418125000,   0.0000000000,   1.8418125000)
 A3 = (   1.8418125000,   1.8418125000,   0.0000000000)
 
  64 primitive cells build up your supercell.
 

 Routine SETGRP: Setting up the symmetry group for a 
 face centered cubic supercell.


 Subroutine GETGRP returns: Found 48 space group operations
 (whereof 48 operations were pure point group operations)
 out of a pool of 48 trial point group operations.


The dynamic configuration has the point symmetry O_h .


Analysis of structural, dynamic, and magnetic symmetry:
=====================================================================
 Subroutine PRICEL returns following result:
 
  LATTYP: Found a face centered cubic cell.
 ALAT       =     3.6836250000
  
  Lattice vectors:
  
 A1 = (   0.0000000000,   1.8418125000,   1.8418125000)
 A2 = (   1.8418125000,   0.0000000000,   1.8418125000)
 A3 = (   1.8418125000,   1.8418125000,   0.0000000000)
 
  64 primitive cells build up your supercell.
 

 Routine SETGRP: Setting up the symmetry group for a 
 face centered cubic supercell.


 Subroutine GETGRP returns: Found 48 space group operations
 (whereof 48 operations were pure point group operations)
 out of a pool of 48 trial point group operations.


The magnetic configuration has the point symmetry O_h .


 Subroutine INISYM returns: Found 48 space group operations
 (whereof 48 operations are pure point group operations),
 and found    64 'primitive' translations

 
 KPOINTS: Zr 15x15x15                             

Automatic generation of k-mesh.
Space group operators:
 irot       det(A)        alpha          n_x          n_y          n_z        tau_x        tau_y        tau_z
    1     1.000000     0.000000     1.000000     0.000000     0.000000     0.000000     0.000000     0.000000
    2    -1.000000     0.000000     1.000000     0.000000     0.000000     0.000000     0.000000     0.000000
    3     1.000000   120.000000    -0.577350    -0.577350    -0.577350     0.000000     0.000000     0.000000
    4    -1.000000   120.000000    -0.577350    -0.577350    -0.577350     0.000000     0.000000     0.000000
    5     1.000000   120.000000     0.577350     0.577350     0.577350     0.000000     0.000000     0.000000
    6    -1.000000   120.000000     0.577350     0.577350     0.577350     0.000000     0.000000     0.000000
    7     1.000000    90.000000     0.000000     0.000000    -1.000000     0.000000     0.000000     0.000000
    8    -1.000000    90.000000     0.000000     0.000000    -1.000000     0.000000     0.000000     0.000000
    9     1.000000   180.000000     0.000000     0.707107     0.707107     0.000000     0.000000     0.000000
   10    -1.000000   180.000000     0.000000     0.707107     0.707107     0.000000     0.000000     0.000000
   11     1.000000    90.000000     0.000000     1.000000     0.000000     0.000000     0.000000     0.000000
   12    -1.000000    90.000000     0.000000     1.000000     0.000000     0.000000     0.000000     0.000000
   13     1.000000   179.999999     0.000000     0.000000     1.000000     0.000000     0.000000     0.000000
   14    -1.000000   179.999999     0.000000     0.000000     1.000000     0.000000     0.000000     0.000000
   15     1.000000   120.000000    -0.577350     0.577350     0.577350     0.000000     0.000000     0.000000
   16    -1.000000   120.000000    -0.577350     0.577350     0.577350     0.000000     0.000000     0.000000
   17     1.000000   120.000000    -0.577350     0.577350    -0.577350     0.000000     0.000000     0.000000
   18    -1.000000   120.000000    -0.577350     0.577350    -0.577350     0.000000     0.000000     0.000000
   19     1.000000    90.000000     0.000000     0.000000     1.000000     0.000000     0.000000     0.000000
   20    -1.000000    90.000000     0.000000     0.000000     1.000000     0.000000     0.000000     0.000000
   21     1.000000    90.000000    -1.000000     0.000000     0.000000     0.000000     0.000000     0.000000
   22    -1.000000    90.000000    -1.000000     0.000000     0.000000     0.000000     0.000000     0.000000
   23     1.000000   180.000000     0.707107     0.000000     0.707107     0.000000     0.000000     0.000000
   24    -1.000000   180.000000     0.707107     0.000000     0.707107     0.000000     0.000000     0.000000
   25     1.000000   120.000000     0.577350    -0.577350     0.577350     0.000000     0.000000     0.000000
   26    -1.000000   120.000000     0.577350    -0.577350     0.577350     0.000000     0.000000     0.000000
   27     1.000000   120.000000    -0.577350    -0.577350     0.577350     0.000000     0.000000     0.000000
   28    -1.000000   120.000000    -0.577350    -0.577350     0.577350     0.000000     0.000000     0.000000
   29     1.000000   180.000000     1.000000     0.000000     0.000000     0.000000     0.000000     0.000000
   30    -1.000000   180.000000     1.000000     0.000000     0.000000     0.000000     0.000000     0.000000
   31     1.000000    90.000000     0.000000    -1.000000     0.000000     0.000000     0.000000     0.000000
   32    -1.000000    90.000000     0.000000    -1.000000     0.000000     0.000000     0.000000     0.000000
   33     1.000000   180.000000     0.707107     0.707107     0.000000     0.000000     0.000000     0.000000
   34    -1.000000   180.000000     0.707107     0.707107     0.000000     0.000000     0.000000     0.000000
   35     1.000000    90.000000     1.000000     0.000000     0.000000     0.000000     0.000000     0.000000
   36    -1.000000    90.000000     1.000000     0.000000     0.000000     0.000000     0.000000     0.000000
   37     1.000000   120.000000     0.577350    -0.577350    -0.577350     0.000000     0.000000     0.000000
   38    -1.000000   120.000000     0.577350    -0.577350    -0.577350     0.000000     0.000000     0.000000
   39     1.000000   180.000000     0.000000     1.000000     0.000000     0.000000     0.000000     0.000000
   40    -1.000000   180.000000     0.000000     1.000000     0.000000     0.000000     0.000000     0.000000
   41     1.000000   120.000000     0.577350     0.577350    -0.577350     0.000000     0.000000     0.000000
   42    -1.000000   120.000000     0.577350     0.577350    -0.577350     0.000000     0.000000     0.000000
   43     1.000000   180.000000     0.000000    -0.707107     0.707107     0.000000     0.000000     0.000000
   44    -1.000000   180.000000     0.000000    -0.707107     0.707107     0.000000     0.000000     0.000000
   45     1.000000   180.000000     0.707107    -0.707107     0.000000     0.000000     0.000000     0.000000
   46    -1.000000   180.000000     0.707107    -0.707107     0.000000     0.000000     0.000000     0.000000
   47     1.000000   180.000000     0.707107     0.000000    -0.707107     0.000000     0.000000     0.000000
   48    -1.000000   180.000000     0.707107     0.000000    -0.707107     0.000000     0.000000     0.000000
 
 Subroutine IBZKPT returns following result:
 ===========================================
 
 Found     10 irreducible k-points:
 
 Following reciprocal coordinates:
            Coordinates               Weight
  0.000000  0.000000  0.000000      1.000000
  0.200000  0.000000  0.000000      8.000000
  0.400000  0.000000  0.000000      8.000000
  0.200000  0.200000  0.000000      6.000000
  0.400000  0.200000  0.000000     24.000000
 -0.400000  0.200000  0.000000     24.000000
 -0.200000  0.200000  0.000000     12.000000
  0.400000  0.400000  0.000000      6.000000
 -0.400000  0.400000  0.000000     12.000000
 -0.400000  0.400000  0.200000     24.000000
 
 Following cartesian coordinates:
            Coordinates               Weight
  0.000000  0.000000  0.000000      1.000000
 -0.013574  0.013574  0.013574      8.000000
 -0.027147  0.027147  0.027147      8.000000
  0.000000  0.000000  0.027147      6.000000
 -0.013574  0.013574  0.040721     24.000000
  0.040721 -0.040721 -0.013574     24.000000
  0.027147 -0.027147  0.000000     12.000000
  0.000000  0.000000  0.054294      6.000000
  0.054294 -0.054294  0.000000     12.000000
  0.067868 -0.040721 -0.013574     24.000000
 
 writing wavefunctions
     LOOP+:  cpu time12284.4795: real time12290.9824
    4ORBIT:  cpu time    0.0000: real time    0.0000

 total amount of memory used by VASP on root node   920639. kBytes
========================================================================

   base      :      30000. kBytes
   nonlr-proj:      58329. kBytes
   fftplans  :      24743. kBytes
   grid      :      77537. kBytes
   one-center:       1990. kBytes
   wavefun   :     728040. kBytes
 
  
  
 General timing and accounting informations for this job:
 ========================================================
  
                  Total CPU time used (sec):    30427.223
                            User time (sec):    30384.336
                          System time (sec):       42.887
                         Elapsed time (sec):    30432.963
  
                   Maximum memory used (kb):     2814620.
                   Average memory used (kb):           0.
  
                          Minor page faults:       222100
                          Major page faults:            1
                 Voluntary context switches:         1877
