<?xml version="1.0" encoding="ISO-8859-1"?>
<modeling>
 <generator>
  <i name="program" type="string">vasp </i>
  <i name="version" type="string">5.4.1  </i>
  <i name="subversion" type="string">05Feb16 (build Oct 12 2016 17:31:35) complex                          parallel </i>
  <i name="platform" type="string">IFC91_ompi </i>
  <i name="date" type="string">2020 09 07 </i>
  <i name="time" type="string">22:41:48 </i>
 </generator>
 <incar>
  <i type="string" name="SYSTEM"> phonon of Zr bcc - omiga</i>
  <i type="string" name="PREC">a</i>
  <i type="int" name="ISPIN">     2</i>
  <i type="int" name="IBRION">     6</i>
  <i name="EDIFF">      0.00000100</i>
  <i type="int" name="NSW">     1</i>
  <v name="MAGMOM">      1.00000000      1.00000000      1.00000000      1.00000000      1.00000000      1.00000000      1.00000000      1.00000000      1.00000000      1.00000000      1.00000000      1.00000000      1.00000000      1.00000000      1.00000000      1.00000000      1.00000000      1.00000000      1.00000000      1.00000000
      1.00000000      1.00000000      1.00000000      1.00000000      1.00000000      1.00000000      1.00000000      1.00000000      1.00000000      1.00000000      1.00000000      1.00000000      1.00000000      1.00000000      1.00000000      1.00000000      1.00000000      1.00000000      1.00000000      1.00000000
      1.00000000      1.00000000      1.00000000      1.00000000      1.00000000      1.00000000      1.00000000      1.00000000      1.00000000      1.00000000      1.00000000      1.00000000      1.00000000      1.00000000      1.00000000      1.00000000      1.00000000      1.00000000      1.00000000      1.00000000
      1.00000000      1.00000000      1.00000000      1.00000000</v>
  <i type="string" name="LREAL">Auto</i>
  <i type="int" name="ISMEAR">     1</i>
  <i type="int" name="NWRITE">     0</i>
  <v type="int" name="KPOINT_BSE">    -1     0     0     0</v>
 </incar>
 <kpoints>
  <generation param="Gamma">
   <v type="int" name="divisions">       5        5        5 </v>
   <v name="usershift">      0.00000000       0.00000000       0.00000000 </v>
   <v name="genvec1">      0.20000000       0.00000000       0.00000000 </v>
   <v name="genvec2">      0.00000000       0.20000000       0.00000000 </v>
   <v name="genvec3">      0.00000000       0.00000000       0.20000000 </v>
   <v name="shift">      0.00000000       0.00000000       0.00000000 </v>
  </generation>
  <varray name="kpointlist" >
   <v>       0.00000000       0.00000000       0.00000000 </v>
   <v>       0.20000000       0.00000000       0.00000000 </v>
   <v>       0.40000000       0.00000000       0.00000000 </v>
   <v>       0.20000000       0.20000000       0.00000000 </v>
   <v>       0.40000000       0.20000000       0.00000000 </v>
   <v>      -0.40000000       0.20000000       0.00000000 </v>
   <v>      -0.20000000       0.20000000       0.00000000 </v>
   <v>       0.40000000       0.40000000       0.00000000 </v>
   <v>      -0.40000000       0.40000000       0.00000000 </v>
   <v>      -0.40000000       0.40000000       0.20000000 </v>
  </varray>
  <varray name="weights" >
   <v>       0.00800000 </v>
   <v>       0.06400000 </v>
   <v>       0.06400000 </v>
   <v>       0.04800000 </v>
   <v>       0.19200000 </v>
   <v>       0.19200000 </v>
   <v>       0.09600000 </v>
   <v>       0.04800000 </v>
   <v>       0.09600000 </v>
   <v>       0.19200000 </v>
  </varray>
 </kpoints>
 <parameters>
  <separator name="general" >
   <i type="string" name="SYSTEM">phonon of Zr bcc - omiga</i>
   <i type="logical" name="LCOMPAT"> F  </i>
  </separator>
  <separator name="electronic" >
   <i type="string" name="PREC">a</i>
   <i name="ENMAX">    367.94500000</i>
   <i name="ENAUG">    703.44300000</i>
   <i name="EDIFF">      0.00000100</i>
   <i type="int" name="IALGO">    38</i>
   <i type="int" name="IWAVPR">    11</i>
   <i type="int" name="NBANDS">   648</i>
   <i name="NELECT">   1024.00000000</i>
   <i type="int" name="TURBO">     0</i>
   <i type="int" name="IRESTART">     0</i>
   <i type="int" name="NREBOOT">     0</i>
   <i type="int" name="NMIN">     0</i>
   <i name="EREF">      0.00000000</i>
   <separator name="electronic smearing" >
    <i type="int" name="ISMEAR">     1</i>
    <i name="SIGMA">      0.20000000</i>
    <i name="KSPACING">      0.50000000</i>
    <i type="logical" name="KGAMMA"> T  </i>
   </separator>
   <separator name="electronic projectors" >
    <i type="logical" name="LREAL"> T  </i>
    <v name="ROPT">     -0.00025000</v>
    <i type="int" name="LMAXPAW">  -100</i>
    <i type="int" name="LMAXMIX">     2</i>
    <i type="logical" name="NLSPLINE"> F  </i>
   </separator>
   <separator name="electronic startup" >
    <i type="int" name="ISTART">     0</i>
    <i type="int" name="ICHARG">     2</i>
    <i type="int" name="INIWAV">     1</i>
   </separator>
   <separator name="electronic spin" >
    <i type="int" name="ISPIN">     2</i>
    <i type="logical" name="LNONCOLLINEAR"> F  </i>
    <v name="MAGMOM">      1.00000000      1.00000000      1.00000000      1.00000000      1.00000000      1.00000000      1.00000000      1.00000000      1.00000000      1.00000000      1.00000000      1.00000000      1.00000000      1.00000000      1.00000000      1.00000000      1.00000000      1.00000000      1.00000000      1.00000000
      1.00000000      1.00000000      1.00000000      1.00000000      1.00000000      1.00000000      1.00000000      1.00000000      1.00000000      1.00000000      1.00000000      1.00000000      1.00000000      1.00000000      1.00000000      1.00000000      1.00000000      1.00000000      1.00000000      1.00000000
      1.00000000      1.00000000      1.00000000      1.00000000      1.00000000      1.00000000      1.00000000      1.00000000      1.00000000      1.00000000      1.00000000      1.00000000      1.00000000      1.00000000      1.00000000      1.00000000      1.00000000      1.00000000      1.00000000      1.00000000
      1.00000000      1.00000000      1.00000000      1.00000000</v>
    <i name="NUPDOWN">     -1.00000000</i>
    <i type="logical" name="LSORBIT"> F  </i>
    <v name="SAXIS">      0.00000000      0.00000000      1.00000000</v>
    <i type="logical" name="LSPIRAL"> F  </i>
    <v name="QSPIRAL">      0.00000000      0.00000000      0.00000000</v>
    <i type="logical" name="LZEROZ"> F  </i>
   </separator>
   <separator name="electronic exchange-correlation" >
    <i type="logical" name="LASPH"> F  </i>
    <i type="logical" name="LMETAGGA"> F  </i>
   </separator>
   <separator name="electronic convergence" >
    <i type="int" name="NELM">    60</i>
    <i type="int" name="NELMDL">     0</i>
    <i type="int" name="NELMIN">     2</i>
    <i name="ENINI">    367.94500000</i>
    <separator name="electronic convergence detail" >
     <i type="logical" name="LDIAG"> T  </i>
     <i type="logical" name="LSUBROT"> F  </i>
     <i name="WEIMIN">      0.00100000</i>
     <i name="EBREAK">      0.00000000</i>
     <i name="DEPER">      0.30000000</i>
     <i type="int" name="NRMM">     4</i>
     <i name="TIME">      0.40000000</i>
    </separator>
   </separator>
   <separator name="electronic mixer" >
    <i name="AMIX">      0.40000000</i>
    <i name="BMIX">      1.00000000</i>
    <i name="AMIN">      0.10000000</i>
    <i name="AMIX_MAG">      1.60000000</i>
    <i name="BMIX_MAG">      1.00000000</i>
    <separator name="electronic mixer details" >
     <i type="int" name="IMIX">     4</i>
     <i type="logical" name="MIXFIRST"> F  </i>
     <i type="int" name="MAXMIX">   -45</i>
     <i name="WC">    100.00000000</i>
     <i type="int" name="INIMIX">     1</i>
     <i type="int" name="MIXPRE">     1</i>
     <i type="int" name="MREMOVE">     5</i>
    </separator>
   </separator>
   <separator name="electronic dipolcorrection" >
    <i type="logical" name="LDIPOL"> F  </i>
    <i type="logical" name="LMONO"> F  </i>
    <i type="int" name="IDIPOL">     0</i>
    <i name="EPSILON">      1.00000000</i>
    <v name="DIPOL">   -100.00000000   -100.00000000   -100.00000000</v>
    <i name="EFIELD">      0.00000000</i>
   </separator>
  </separator>
  <separator name="grids" >
   <i type="int" name="NGX">    70</i>
   <i type="int" name="NGY">    70</i>
   <i type="int" name="NGZ">    70</i>
   <i type="int" name="NGXF">   140</i>
   <i type="int" name="NGYF">   140</i>
   <i type="int" name="NGZF">   140</i>
   <i type="logical" name="ADDGRID"> F  </i>
  </separator>
  <separator name="ionic" >
   <i type="int" name="NSW">   805</i>
   <i type="int" name="IBRION">     6</i>
   <i type="int" name="ISIF">     2</i>
   <i name="PSTRESS">      0.00000000</i>
   <i name="EDIFFG">      0.00001000</i>
   <i type="int" name="NFREE">     2</i>
   <i name="POTIM">      0.50000000</i>
   <i name="SMASS">     -3.00000000</i>
   <i name="SCALEE">      1.00000000</i>
  </separator>
  <separator name="ionic md" >
   <i name="TEBEG">      0.00010000</i>
   <i name="TEEND">      0.00010000</i>
   <i type="int" name="NBLOCK">     1</i>
   <i type="int" name="KBLOCK">     1</i>
   <i type="int" name="NPACO">   256</i>
   <i name="APACO">     16.00000000</i>
  </separator>
  <separator name="symmetry" >
   <i type="int" name="ISYM">     2</i>
   <i name="SYMPREC">      0.00001000</i>
  </separator>
  <separator name="dos" >
   <i type="logical" name="LORBIT"> F  </i>
   <v name="RWIGS">     -1.00000000</v>
   <i type="int" name="NEDOS">   301</i>
   <i name="EMIN">     10.00000000</i>
   <i name="EMAX">    -10.00000000</i>
   <i name="EFERMI">      0.00000000</i>
  </separator>
  <separator name="writing" >
   <i type="int" name="NWRITE">     0</i>
   <i type="logical" name="LWAVE"> T  </i>
   <i type="logical" name="LCHARG"> T  </i>
   <i type="logical" name="LPARD"> F  </i>
   <i type="logical" name="LVTOT"> F  </i>
   <i type="logical" name="LVHAR"> F  </i>
   <i type="logical" name="LELF"> F  </i>
   <i type="logical" name="LOPTICS"> F  </i>
   <v name="STM">      0.00000000      0.00000000      0.00000000      0.00000000      0.00000000      0.00000000      0.00000000</v>
  </separator>
  <separator name="performance" >
   <i type="int" name="NPAR">     4</i>
   <i type="int" name="NSIM">     4</i>
   <i type="int" name="NBLK">    -1</i>
   <i type="logical" name="LPLANE"> T  </i>
   <i type="logical" name="LSCALAPACK"> T  </i>
   <i type="logical" name="LSCAAWARE"> F  </i>
   <i type="logical" name="LSCALU"> F  </i>
   <i type="logical" name="LASYNC"> F  </i>
   <i type="logical" name="LORBITALREAL"> F  </i>
  </separator>
  <separator name="miscellaneous" >
   <i type="int" name="IDIOT">     3</i>
   <i type="logical" name="LMUSIC"> F  </i>
   <v name="POMASS">     58.69000000</v>
   <v name="DARWINR">      0.00000000</v>
   <v name="DARWINV">      1.00000000</v>
   <i type="logical" name="LCORR"> T  </i>
  </separator>
  <i type="logical" name="GGA_COMPAT"> T  </i>
  <i type="logical" name="LBERRY"> F  </i>
  <i type="int" name="ICORELEVEL">     0</i>
  <i type="logical" name="LDAU"> F  </i>
  <i type="int" name="I_CONSTRAINED_M">     0</i>
  <separator name="electronic exchange-correlation" >
   <i type="string" name="GGA">--</i>
   <i type="int" name="VOSKOWN">     0</i>
   <i type="logical" name="LHFCALC"> F  </i>
   <i type="string" name="PRECFOCK"></i>
   <i type="logical" name="LSYMGRAD"> F  </i>
   <i type="logical" name="LHFONE"> F  </i>
   <i type="logical" name="LRHFCALC"> F  </i>
   <i type="logical" name="LTHOMAS"> F  </i>
   <i type="logical" name="LMODELHF"> F  </i>
   <i name="ENCUT4O">     -1.00000000</i>
   <i type="int" name="EXXOEP">     0</i>
   <i type="int" name="FOURORBIT">     0</i>
   <i name="AEXX">      0.00000000</i>
   <i name="HFALPHA">      0.00000000</i>
   <i name="MCALPHA">      0.00000000</i>
   <i name="ALDAX">      1.00000000</i>
   <i name="AGGAX">      1.00000000</i>
   <i name="ALDAC">      1.00000000</i>
   <i name="AGGAC">      1.00000000</i>
   <i type="int" name="NKREDX">     1</i>
   <i type="int" name="NKREDY">     1</i>
   <i type="int" name="NKREDZ">     1</i>
   <i type="logical" name="SHIFTRED"> F  </i>
   <i type="logical" name="ODDONLY"> F  </i>
   <i type="logical" name="EVENONLY"> F  </i>
   <i type="int" name="LMAXFOCK">     0</i>
   <i type="int" name="NMAXFOCKAE">     0</i>
   <i type="logical" name="LFOCKAEDFT"> F  </i>
   <i name="HFSCREEN">      0.00000000</i>
   <i name="HFSCREENC">      0.00000000</i>
   <i type="int" name="NBANDSGWLOW">     0</i>
  </separator>
  <separator name="vdW DFT" >
   <i type="logical" name="LUSE_VDW"> F  </i>
   <i name="Zab_VDW">     -0.84910000</i>
   <i name="PARAM1">      0.12340000</i>
   <i name="PARAM2">      1.00000000</i>
   <i name="PARAM3">      0.00000000</i>
  </separator>
  <separator name="model GW" >
   <i type="int" name="MODEL_GW">     0</i>
   <i name="MODEL_EPS0">      7.49751761</i>
   <i name="MODEL_ALPHA">      1.00000000</i>
  </separator>
  <separator name="linear response parameters" >
   <i type="logical" name="LEPSILON"> F  </i>
   <i type="logical" name="LRPA"> F  </i>
   <i type="logical" name="LNABLA"> F  </i>
   <i type="logical" name="LVEL"> F  </i>
   <i type="int" name="KINTER">     0</i>
   <i name="CSHIFT">      0.10000000</i>
   <i name="OMEGAMAX">     -1.00000000</i>
   <i name="DEG_THRESHOLD">      0.00200000</i>
  </separator>
  <separator name="orbital magnetization" >
   <i type="logical" name="NUCIND"> F  </i>
   <v name="MAGPOS">      0.00000000      0.00000000      0.00000000</v>
   <i type="logical" name="LNICSALL"> T  </i>
   <i type="logical" name="ORBITALMAG"> F  </i>
   <i type="logical" name="LMAGBLOCH"> F  </i>
   <i type="logical" name="LCHIMAG"> F  </i>
   <i type="logical" name="LGAUGE"> T  </i>
   <i type="int" name="MAGATOM">     0</i>
   <v name="MAGDIPOL">      0.00000000      0.00000000      0.00000000</v>
   <v name="AVECCONST">      0.00000000      0.00000000      0.00000000</v>
  </separator>
  <separator name="response functions" >
   <i type="logical" name="LADDER"> F  </i>
   <i type="logical" name="LFXC"> F  </i>
   <i type="logical" name="LHARTREE"> T  </i>
   <i type="int" name="IBSE">     0</i>
   <v type="int" name="KPOINT">    -1     0     0     0</v>
   <i type="logical" name="LTCTE"> F  </i>
   <i type="logical" name="LTETE"> F  </i>
   <i type="logical" name="LTRIPLET"> F  </i>
   <i type="logical" name="LFXCEPS"> F  </i>
   <i type="logical" name="LFXHEG"> F  </i>
   <i type="int" name="NATURALO">     0</i>
   <i type="logical" name="L2ORDER"> F  </i>
   <i type="logical" name="LUSEW"> F  </i>
   <i name="ENCUTGW">     -2.00000000</i>
   <i name="ENCUTGWSOFT">     -2.00000000</i>
   <i name="ENCUTLF">     -1.00000000</i>
   <i type="int" name="LMAXMP2">    -1</i>
   <i name="SCISSOR">      0.00000000</i>
   <i type="int" name="NOMEGA">     0</i>
   <i type="int" name="NOMEGAR">     0</i>
   <i type="int" name="NBANDSGW">    -1</i>
   <i type="int" name="NBANDSO">    -1</i>
   <i type="int" name="NBANDSV">    -1</i>
   <i type="int" name="NELM">     1</i>
   <i type="int" name="NELMHF">     1</i>
   <i type="int" name="DIM">     3</i>
   <i type="int" name="ANTIRES">     0</i>
   <i name="OMEGAMAX">    -30.00000000</i>
   <i name="OMEGAMIN">    -30.00000000</i>
   <i name="OMEGATL">   -200.00000000</i>
   <i type="int" name="OMEGAGRID">     0</i>
   <i name="CSHIFT">     -0.10000000</i>
   <i type="logical" name="SELFENERGY"> F  </i>
   <i type="logical" name="LSPECTRAL"> F  </i>
   <i type="logical" name="LSPECTRALGW"> F  </i>
   <i type="logical" name="LSINGLES"> F  </i>
   <i type="logical" name="LFERMIGW"> F  </i>
   <i type="logical" name="ODDONLYGW"> F  </i>
   <i type="logical" name="EVENONLYGW"> F  </i>
   <i type="int" name="NKREDLFX">     1</i>
   <i type="int" name="NKREDLFY">     1</i>
   <i type="int" name="NKREDLFZ">     1</i>
   <i type="int" name="MAXMEM">  1800</i>
   <i type="int" name="TELESCOPE">     0</i>
   <i type="int" name="TAUPAR">     1</i>
   <i type="int" name="OMEGAPAR">    -1</i>
   <i name="LAMBDA">      1.00000000</i>
  </separator>
  <separator name="External order field" >
   <i name="OFIELD_KAPPA">      0.00000000</i>
   <v name="OFIELD_K">      0.00000000      0.00000000      0.00000000</v>
   <i name="OFIELD_Q6_NEAR">      0.00000000</i>
   <i name="OFIELD_Q6_FAR">      0.00000000</i>
   <i name="OFIELD_A">      0.00000000</i>
  </separator>
 </parameters>
 <atominfo>
  <atoms>      64 </atoms>
  <types>       1 </types>
  <array name="atoms" >
   <dimension dim="1">ion</dimension>
   <field type="string">element</field>
   <field type="int">atomtype</field>
   <set>
    <rc><c>Ni</c><c>   1</c></rc>
    <rc><c>Ni</c><c>   1</c></rc>
    <rc><c>Ni</c><c>   1</c></rc>
    <rc><c>Ni</c><c>   1</c></rc>
    <rc><c>Ni</c><c>   1</c></rc>
    <rc><c>Ni</c><c>   1</c></rc>
    <rc><c>Ni</c><c>   1</c></rc>
    <rc><c>Ni</c><c>   1</c></rc>
    <rc><c>Ni</c><c>   1</c></rc>
    <rc><c>Ni</c><c>   1</c></rc>
    <rc><c>Ni</c><c>   1</c></rc>
    <rc><c>Ni</c><c>   1</c></rc>
    <rc><c>Ni</c><c>   1</c></rc>
    <rc><c>Ni</c><c>   1</c></rc>
    <rc><c>Ni</c><c>   1</c></rc>
    <rc><c>Ni</c><c>   1</c></rc>
    <rc><c>Ni</c><c>   1</c></rc>
    <rc><c>Ni</c><c>   1</c></rc>
    <rc><c>Ni</c><c>   1</c></rc>
    <rc><c>Ni</c><c>   1</c></rc>
    <rc><c>Ni</c><c>   1</c></rc>
    <rc><c>Ni</c><c>   1</c></rc>
    <rc><c>Ni</c><c>   1</c></rc>
    <rc><c>Ni</c><c>   1</c></rc>
    <rc><c>Ni</c><c>   1</c></rc>
    <rc><c>Ni</c><c>   1</c></rc>
    <rc><c>Ni</c><c>   1</c></rc>
    <rc><c>Ni</c><c>   1</c></rc>
    <rc><c>Ni</c><c>   1</c></rc>
    <rc><c>Ni</c><c>   1</c></rc>
    <rc><c>Ni</c><c>   1</c></rc>
    <rc><c>Ni</c><c>   1</c></rc>
    <rc><c>Ni</c><c>   1</c></rc>
    <rc><c>Ni</c><c>   1</c></rc>
    <rc><c>Ni</c><c>   1</c></rc>
    <rc><c>Ni</c><c>   1</c></rc>
    <rc><c>Ni</c><c>   1</c></rc>
    <rc><c>Ni</c><c>   1</c></rc>
    <rc><c>Ni</c><c>   1</c></rc>
    <rc><c>Ni</c><c>   1</c></rc>
    <rc><c>Ni</c><c>   1</c></rc>
    <rc><c>Ni</c><c>   1</c></rc>
    <rc><c>Ni</c><c>   1</c></rc>
    <rc><c>Ni</c><c>   1</c></rc>
    <rc><c>Ni</c><c>   1</c></rc>
    <rc><c>Ni</c><c>   1</c></rc>
    <rc><c>Ni</c><c>   1</c></rc>
    <rc><c>Ni</c><c>   1</c></rc>
    <rc><c>Ni</c><c>   1</c></rc>
    <rc><c>Ni</c><c>   1</c></rc>
    <rc><c>Ni</c><c>   1</c></rc>
    <rc><c>Ni</c><c>   1</c></rc>
    <rc><c>Ni</c><c>   1</c></rc>
    <rc><c>Ni</c><c>   1</c></rc>
    <rc><c>Ni</c><c>   1</c></rc>
    <rc><c>Ni</c><c>   1</c></rc>
    <rc><c>Ni</c><c>   1</c></rc>
    <rc><c>Ni</c><c>   1</c></rc>
    <rc><c>Ni</c><c>   1</c></rc>
    <rc><c>Ni</c><c>   1</c></rc>
    <rc><c>Ni</c><c>   1</c></rc>
    <rc><c>Ni</c><c>   1</c></rc>
    <rc><c>Ni</c><c>   1</c></rc>
    <rc><c>Ni</c><c>   1</c></rc>
   </set>
  </array>
  <array name="atomtypes" >
   <dimension dim="1">type</dimension>
   <field type="int">atomspertype</field>
   <field type="string">element</field>
   <field>mass</field>
   <field>valence</field>
   <field type="string">pseudopotential</field>
   <set>
    <rc><c>  64</c><c>Ni</c><c>     58.69000000</c><c>     16.00000000</c><c> PAW_PBE Ni_pv 06Sep2000                </c></rc>
   </set>
  </array>
 </atominfo>
 <structure name="initialpos" >
  <crystal>
   <varray name="basis" >
    <v>       0.00000000       7.36725000       7.36725000 </v>
    <v>       7.36725000       0.00000000       7.36725000 </v>
    <v>       7.36725000       7.36725000       0.00000000 </v>
   </varray>
   <i name="volume">    799.73521152 </i>
   <varray name="rec_basis" >
    <v>      -0.06786793       0.06786793       0.06786793 </v>
    <v>       0.06786793      -0.06786793       0.06786793 </v>
    <v>       0.06786793       0.06786793      -0.06786793 </v>
   </varray>
  </crystal>
  <varray name="positions" >
   <v>       0.00000000       0.00000000       0.00000000 </v>
   <v>       0.00000000       0.00000000       0.25000000 </v>
   <v>       0.00000000       0.00000000       0.50000000 </v>
   <v>       0.00000000       0.00000000       0.75000000 </v>
   <v>       0.00000000       0.25000000       0.00000000 </v>
   <v>       0.00000000       0.25000000       0.25000000 </v>
   <v>       0.00000000       0.25000000       0.50000000 </v>
   <v>       0.00000000       0.25000000       0.75000000 </v>
   <v>       0.00000000       0.50000000       0.00000000 </v>
   <v>       0.00000000       0.50000000       0.25000000 </v>
   <v>       0.00000000       0.50000000       0.50000000 </v>
   <v>       0.00000000       0.50000000       0.75000000 </v>
   <v>       0.00000000       0.75000000       0.00000000 </v>
   <v>       0.00000000       0.75000000       0.25000000 </v>
   <v>       0.00000000       0.75000000       0.50000000 </v>
   <v>       0.00000000       0.75000000       0.75000000 </v>
   <v>       0.25000000       0.00000000       0.00000000 </v>
   <v>       0.25000000       0.00000000       0.25000000 </v>
   <v>       0.25000000       0.00000000       0.50000000 </v>
   <v>       0.25000000       0.00000000       0.75000000 </v>
   <v>       0.25000000       0.25000000       0.00000000 </v>
   <v>       0.25000000       0.25000000       0.25000000 </v>
   <v>       0.25000000       0.25000000       0.50000000 </v>
   <v>       0.25000000       0.25000000       0.75000000 </v>
   <v>       0.25000000       0.50000000       0.00000000 </v>
   <v>       0.25000000       0.50000000       0.25000000 </v>
   <v>       0.25000000       0.50000000       0.50000000 </v>
   <v>       0.25000000       0.50000000       0.75000000 </v>
   <v>       0.25000000       0.75000000       0.00000000 </v>
   <v>       0.25000000       0.75000000       0.25000000 </v>
   <v>       0.25000000       0.75000000       0.50000000 </v>
   <v>       0.25000000       0.75000000       0.75000000 </v>
   <v>       0.50000000       0.00000000       0.00000000 </v>
   <v>       0.50000000       0.00000000       0.25000000 </v>
   <v>       0.50000000       0.00000000       0.50000000 </v>
   <v>       0.50000000       0.00000000       0.75000000 </v>
   <v>       0.50000000       0.25000000       0.00000000 </v>
   <v>       0.50000000       0.25000000       0.25000000 </v>
   <v>       0.50000000       0.25000000       0.50000000 </v>
   <v>       0.50000000       0.25000000       0.75000000 </v>
   <v>       0.50000000       0.50000000       0.00000000 </v>
   <v>       0.50000000       0.50000000       0.25000000 </v>
   <v>       0.50000000       0.50000000       0.50000000 </v>
   <v>       0.50000000       0.50000000       0.75000000 </v>
   <v>       0.50000000       0.75000000       0.00000000 </v>
   <v>       0.50000000       0.75000000       0.25000000 </v>
   <v>       0.50000000       0.75000000       0.50000000 </v>
   <v>       0.50000000       0.75000000       0.75000000 </v>
   <v>       0.75000000       0.00000000       0.00000000 </v>
   <v>       0.75000000       0.00000000       0.25000000 </v>
   <v>       0.75000000       0.00000000       0.50000000 </v>
   <v>       0.75000000       0.00000000       0.75000000 </v>
   <v>       0.75000000       0.25000000       0.00000000 </v>
   <v>       0.75000000       0.25000000       0.25000000 </v>
   <v>       0.75000000       0.25000000       0.50000000 </v>
   <v>       0.75000000       0.25000000       0.75000000 </v>
   <v>       0.75000000       0.50000000       0.00000000 </v>
   <v>       0.75000000       0.50000000       0.25000000 </v>
   <v>       0.75000000       0.50000000       0.50000000 </v>
   <v>       0.75000000       0.50000000       0.75000000 </v>
   <v>       0.75000000       0.75000000       0.00000000 </v>
   <v>       0.75000000       0.75000000       0.25000000 </v>
   <v>       0.75000000       0.75000000       0.50000000 </v>
   <v>       0.75000000       0.75000000       0.75000000 </v>
  </varray>
 </structure>
 <calculation>
  <scstep>
   <time name="dav">  407.45  407.11</time>
   <time name="total">  408.39  408.05</time>
   <energy>
    <i name="alphaZ">   8628.10280496 </i>
    <i name="ewald">-146823.96742904 </i>
    <i name="hartreedc"> -65868.69495599 </i>
    <i name="XCdc">   5689.77156659 </i>
    <i name="pawpsdc"> 172361.15642774 </i>
    <i name="pawaedc">-181272.45834873 </i>
    <i name="eentropy">     -0.00369033 </i>
    <i name="bandstr">  -3263.63680702 </i>
    <i name="atom"> 224013.29143063 </i>
    <i name="e_fr_energy">  13463.56099882 </i>
    <i name="e_wo_entrp">  13463.56468914 </i>
    <i name="e_0_energy">  13463.56222893 </i>
   </energy>
  </scstep>
  <scstep>
   <time name="dav">  358.30  358.00</time>
   <time name="total">  358.30  358.01</time>
   <energy>
    <i name="e_fr_energy">    710.36219207 </i>
    <i name="e_wo_entrp">    710.35604010 </i>
    <i name="e_0_energy">    710.36014141 </i>
   </energy>
  </scstep>
  <scstep>
   <time name="dav">  366.72  366.42</time>
   <time name="total">  366.73  366.43</time>
   <energy>
    <i name="e_fr_energy">   -366.66501664 </i>
    <i name="e_wo_entrp">   -366.72458319 </i>
    <i name="e_0_energy">   -366.68487216 </i>
   </energy>
  </scstep>
  <scstep>
   <time name="dav">  380.03  379.72</time>
   <time name="total">  380.04  379.73</time>
   <energy>
    <i name="e_fr_energy">   -422.89012425 </i>
    <i name="e_wo_entrp">   -423.02650210 </i>
    <i name="e_0_energy">   -422.93558353 </i>
   </energy>
  </scstep>
  <scstep>
   <time name="dav">  375.30  375.00</time>
   <time name="total">  394.64  394.32</time>
   <energy>
    <i name="e_fr_energy">   -423.74716914 </i>
    <i name="e_wo_entrp">   -423.88437951 </i>
    <i name="e_0_energy">   -423.79290593 </i>
   </energy>
  </scstep>
  <scstep>
   <time name="dav">  373.70  373.39</time>
   <time name="total">  393.19  392.87</time>
   <energy>
    <i name="e_fr_energy">   -400.79116186 </i>
    <i name="e_wo_entrp">   -400.39251149 </i>
    <i name="e_0_energy">   -400.65827840 </i>
   </energy>
  </scstep>
  <scstep>
   <time name="dav">  379.73  379.42</time>
   <time name="total">  400.36  400.03</time>
   <energy>
    <i name="e_fr_energy">   -361.58949780 </i>
    <i name="e_wo_entrp">   -361.33649786 </i>
    <i name="e_0_energy">   -361.50516449 </i>
   </energy>
  </scstep>
  <scstep>
   <time name="dav">  384.67  384.38</time>
   <time name="total">  405.38  405.07</time>
   <energy>
    <i name="e_fr_energy">   -361.74259711 </i>
    <i name="e_wo_entrp">   -361.50479755 </i>
    <i name="e_0_energy">   -361.66333059 </i>
   </energy>
  </scstep>
  <scstep>
   <time name="dav">  393.50  393.19</time>
   <time name="total">  414.32  413.99</time>
   <energy>
    <i name="e_fr_energy">   -361.72794796 </i>
    <i name="e_wo_entrp">   -361.49069533 </i>
    <i name="e_0_energy">   -361.64886375 </i>
   </energy>
  </scstep>
  <scstep>
   <time name="dav">  411.27  410.93</time>
   <time name="total">  431.73  431.37</time>
   <energy>
    <i name="e_fr_energy">   -361.73228893 </i>
    <i name="e_wo_entrp">   -361.49517821 </i>
    <i name="e_0_energy">   -361.65325202 </i>
   </energy>
  </scstep>
  <scstep>
   <time name="dav">  384.54  385.43</time>
   <time name="total">  405.11  405.99</time>
   <energy>
    <i name="e_fr_energy">   -361.73370206 </i>
    <i name="e_wo_entrp">   -361.49674184 </i>
    <i name="e_0_energy">   -361.65471532 </i>
   </energy>
  </scstep>
  <scstep>
   <time name="dav">  393.30  392.99</time>
   <time name="total">  413.04  412.71</time>
   <energy>
    <i name="e_fr_energy">   -361.73388565 </i>
    <i name="e_wo_entrp">   -361.49633014 </i>
    <i name="e_0_energy">   -361.65470048 </i>
   </energy>
  </scstep>
  <scstep>
   <time name="dav">  362.96  362.66</time>
   <time name="total">  382.69  382.38</time>
   <energy>
    <i name="e_fr_energy">   -361.73391391 </i>
    <i name="e_wo_entrp">   -361.49640613 </i>
    <i name="e_0_energy">   -361.65474465 </i>
   </energy>
  </scstep>
  <scstep>
   <time name="dav">  308.46  308.20</time>
   <time name="total">  328.22  327.95</time>
   <energy>
    <i name="e_fr_energy">   -361.73390717 </i>
    <i name="e_wo_entrp">   -361.49643307 </i>
    <i name="e_0_energy">   -361.65474914 </i>
   </energy>
  </scstep>
  <scstep>
   <time name="dav">  260.10  259.88</time>
   <time name="total">  279.67  279.44</time>
   <energy>
    <i name="e_fr_energy">   -361.73389509 </i>
    <i name="e_wo_entrp">   -361.49644780 </i>
    <i name="e_0_energy">   -361.65474599 </i>
   </energy>
  </scstep>
  <scstep>
   <time name="dav">  230.39  230.20</time>
   <time name="total">  249.99  249.78</time>
   <energy>
    <i name="e_fr_energy">   -361.73389285 </i>
    <i name="e_wo_entrp">   -361.49644028 </i>
    <i name="e_0_energy">   -361.65474199 </i>
   </energy>
  </scstep>
  <scstep>
   <time name="dav">  229.37  229.18</time>
   <time name="total">  230.31  230.13</time>
   <energy>
    <i name="alphaZ">   8628.10280496 </i>
    <i name="ewald">-146823.96742904 </i>
    <i name="hartreedc"> -63585.25470636 </i>
    <i name="XCdc">   5604.96418306 </i>
    <i name="pawpsdc"> 170788.10673909 </i>
    <i name="pawaedc">-179811.65500948 </i>
    <i name="eentropy">     -0.23745397 </i>
    <i name="bandstr"> -19175.08445202 </i>
    <i name="atom"> 224013.29143063 </i>
    <i name="e_fr_energy">   -361.73389313 </i>
    <i name="e_wo_entrp">   -361.49643916 </i>
    <i name="e_0_energy">   -361.65474180 </i>
   </energy>
  </scstep>
  <structure>
   <crystal>
    <varray name="basis" >
     <v>       0.00000000       7.36725000       7.36725000 </v>
     <v>       7.36725000       0.00000000       7.36725000 </v>
     <v>       7.36725000       7.36725000       0.00000000 </v>
    </varray>
    <i name="volume">    799.73521152 </i>
    <varray name="rec_basis" >
     <v>      -0.06786793       0.06786793       0.06786793 </v>
     <v>       0.06786793      -0.06786793       0.06786793 </v>
     <v>       0.06786793       0.06786793      -0.06786793 </v>
    </varray>
   </crystal>
   <varray name="positions" >
    <v>       0.00000000       0.00000000       0.00000000 </v>
    <v>       0.00000000       0.00000000       0.25000000 </v>
    <v>       0.00000000       0.00000000       0.50000000 </v>
    <v>       0.00000000       0.00000000       0.75000000 </v>
    <v>       0.00000000       0.25000000       0.00000000 </v>
    <v>       0.00000000       0.25000000       0.25000000 </v>
    <v>       0.00000000       0.25000000       0.50000000 </v>
    <v>       0.00000000       0.25000000       0.75000000 </v>
    <v>       0.00000000       0.50000000       0.00000000 </v>
    <v>       0.00000000       0.50000000       0.25000000 </v>
    <v>       0.00000000       0.50000000       0.50000000 </v>
    <v>       0.00000000       0.50000000       0.75000000 </v>
    <v>       0.00000000       0.75000000       0.00000000 </v>
    <v>       0.00000000       0.75000000       0.25000000 </v>
    <v>       0.00000000       0.75000000       0.50000000 </v>
    <v>       0.00000000       0.75000000       0.75000000 </v>
    <v>       0.25000000       0.00000000       0.00000000 </v>
    <v>       0.25000000       0.00000000       0.25000000 </v>
    <v>       0.25000000       0.00000000       0.50000000 </v>
    <v>       0.25000000       0.00000000       0.75000000 </v>
    <v>       0.25000000       0.25000000       0.00000000 </v>
    <v>       0.25000000       0.25000000       0.25000000 </v>
    <v>       0.25000000       0.25000000       0.50000000 </v>
    <v>       0.25000000       0.25000000       0.75000000 </v>
    <v>       0.25000000       0.50000000       0.00000000 </v>
    <v>       0.25000000       0.50000000       0.25000000 </v>
    <v>       0.25000000       0.50000000       0.50000000 </v>
    <v>       0.25000000       0.50000000       0.75000000 </v>
    <v>       0.25000000       0.75000000       0.00000000 </v>
    <v>       0.25000000       0.75000000       0.25000000 </v>
    <v>       0.25000000       0.75000000       0.50000000 </v>
    <v>       0.25000000       0.75000000       0.75000000 </v>
    <v>       0.50000000       0.00000000       0.00000000 </v>
    <v>       0.50000000       0.00000000       0.25000000 </v>
    <v>       0.50000000       0.00000000       0.50000000 </v>
    <v>       0.50000000       0.00000000       0.75000000 </v>
    <v>       0.50000000       0.25000000       0.00000000 </v>
    <v>       0.50000000       0.25000000       0.25000000 </v>
    <v>       0.50000000       0.25000000       0.50000000 </v>
    <v>       0.50000000       0.25000000       0.75000000 </v>
    <v>       0.50000000       0.50000000       0.00000000 </v>
    <v>       0.50000000       0.50000000       0.25000000 </v>
    <v>       0.50000000       0.50000000       0.50000000 </v>
    <v>       0.50000000       0.50000000       0.75000000 </v>
    <v>       0.50000000       0.75000000       0.00000000 </v>
    <v>       0.50000000       0.75000000       0.25000000 </v>
    <v>       0.50000000       0.75000000       0.50000000 </v>
    <v>       0.50000000       0.75000000       0.75000000 </v>
    <v>       0.75000000       0.00000000       0.00000000 </v>
    <v>       0.75000000       0.00000000       0.25000000 </v>
    <v>       0.75000000       0.00000000       0.50000000 </v>
    <v>       0.75000000       0.00000000       0.75000000 </v>
    <v>       0.75000000       0.25000000       0.00000000 </v>
    <v>       0.75000000       0.25000000       0.25000000 </v>
    <v>       0.75000000       0.25000000       0.50000000 </v>
    <v>       0.75000000       0.25000000       0.75000000 </v>
    <v>       0.75000000       0.50000000       0.00000000 </v>
    <v>       0.75000000       0.50000000       0.25000000 </v>
    <v>       0.75000000       0.50000000       0.50000000 </v>
    <v>       0.75000000       0.50000000       0.75000000 </v>
    <v>       0.75000000       0.75000000       0.00000000 </v>
    <v>       0.75000000       0.75000000       0.25000000 </v>
    <v>       0.75000000       0.75000000       0.50000000 </v>
    <v>       0.75000000       0.75000000       0.75000000 </v>
   </varray>
  </structure>
  <varray name="forces" >
   <v>       0.00000000      -0.00000000      -0.00000000 </v>
   <v>      -0.00000000       0.00000000      -0.00000000 </v>
   <v>      -0.00000000      -0.00000000       0.00000000 </v>
   <v>      -0.00000000       0.00000000      -0.00000000 </v>
   <v>      -0.00000000       0.00000000      -0.00000000 </v>
   <v>      -0.00000000       0.00000000       0.00000000 </v>
   <v>       0.00000000      -0.00000000      -0.00000000 </v>
   <v>      -0.00000000      -0.00000000      -0.00000000 </v>
   <v>      -0.00000000      -0.00000000       0.00000000 </v>
   <v>      -0.00000000       0.00000000       0.00000000 </v>
   <v>      -0.00000000      -0.00000000      -0.00000000 </v>
   <v>       0.00000000       0.00000000      -0.00000000 </v>
   <v>      -0.00000000      -0.00000000      -0.00000000 </v>
   <v>       0.00000000      -0.00000000       0.00000000 </v>
   <v>       0.00000000      -0.00000000       0.00000000 </v>
   <v>      -0.00000000       0.00000000       0.00000000 </v>
   <v>      -0.00000000       0.00000000      -0.00000000 </v>
   <v>      -0.00000000      -0.00000000      -0.00000000 </v>
   <v>       0.00000000      -0.00000000       0.00000000 </v>
   <v>      -0.00000000      -0.00000000      -0.00000000 </v>
   <v>      -0.00000000       0.00000000      -0.00000000 </v>
   <v>      -0.00000000       0.00000000       0.00000000 </v>
   <v>       0.00000000       0.00000000       0.00000000 </v>
   <v>      -0.00000000       0.00000000      -0.00000000 </v>
   <v>       0.00000000       0.00000000       0.00000000 </v>
   <v>       0.00000000      -0.00000000       0.00000000 </v>
   <v>       0.00000000       0.00000000      -0.00000000 </v>
   <v>      -0.00000000       0.00000000      -0.00000000 </v>
   <v>       0.00000000      -0.00000000      -0.00000000 </v>
   <v>       0.00000000      -0.00000000       0.00000000 </v>
   <v>      -0.00000000      -0.00000000       0.00000000 </v>
   <v>      -0.00000000      -0.00000000       0.00000000 </v>
   <v>      -0.00000000      -0.00000000      -0.00000000 </v>
   <v>      -0.00000000      -0.00000000       0.00000000 </v>
   <v>       0.00000000       0.00000000       0.00000000 </v>
   <v>       0.00000000       0.00000000      -0.00000000 </v>
   <v>      -0.00000000       0.00000000       0.00000000 </v>
   <v>      -0.00000000      -0.00000000       0.00000000 </v>
   <v>      -0.00000000       0.00000000      -0.00000000 </v>
   <v>       0.00000000       0.00000000       0.00000000 </v>
   <v>      -0.00000000      -0.00000000       0.00000000 </v>
   <v>      -0.00000000       0.00000000       0.00000000 </v>
   <v>       0.00000000      -0.00000000      -0.00000000 </v>
   <v>       0.00000000      -0.00000000       0.00000000 </v>
   <v>      -0.00000000      -0.00000000       0.00000000 </v>
   <v>      -0.00000000       0.00000000       0.00000000 </v>
   <v>       0.00000000       0.00000000      -0.00000000 </v>
   <v>       0.00000000      -0.00000000       0.00000000 </v>
   <v>       0.00000000       0.00000000      -0.00000000 </v>
   <v>       0.00000000      -0.00000000      -0.00000000 </v>
   <v>      -0.00000000       0.00000000       0.00000000 </v>
   <v>       0.00000000      -0.00000000      -0.00000000 </v>
   <v>      -0.00000000      -0.00000000      -0.00000000 </v>
   <v>      -0.00000000       0.00000000       0.00000000 </v>
   <v>       0.00000000      -0.00000000      -0.00000000 </v>
   <v>       0.00000000       0.00000000      -0.00000000 </v>
   <v>       0.00000000      -0.00000000       0.00000000 </v>
   <v>      -0.00000000       0.00000000      -0.00000000 </v>
   <v>       0.00000000       0.00000000      -0.00000000 </v>
   <v>       0.00000000       0.00000000       0.00000000 </v>
   <v>       0.00000000      -0.00000000      -0.00000000 </v>
   <v>       0.00000000       0.00000000       0.00000000 </v>
   <v>       0.00000000      -0.00000000       0.00000000 </v>
   <v>       0.00000000       0.00000000       0.00000000 </v>
  </varray>
  <varray name="stress" >
   <v>    -321.58676752       0.00000000       0.00000000 </v>
   <v>       0.00000000    -321.58676752      -0.00000000 </v>
   <v>       0.00000000      -0.00000000    -321.58676752 </v>
  </varray>
  <energy>
   <i name="e_fr_energy">   -361.73389313 </i>
   <i name="e_wo_entrp">   -361.65474180 </i>
   <i name="e_0_energy">     -0.23745397 </i>
  </energy>
  <kpoints>
   <generation param="Gamma">
    <v type="int" name="divisions">       5        5        5 </v>
    <v name="usershift">      0.00000000       0.00000000       0.00000000 </v>
    <v name="genvec1">      0.20000000       0.00000000       0.00000000 </v>
    <v name="genvec2">      0.00000000       0.20000000       0.00000000 </v>
    <v name="genvec3">      0.00000000       0.00000000       0.20000000 </v>
    <v name="shift">      0.00000000       0.00000000       0.00000000 </v>
   </generation>
   <varray name="kpointlist" >
    <v>       0.00000000       0.00000000       0.00000000 </v>
    <v>       0.20000000       0.00000000       0.00000000 </v>
    <v>       0.40000000       0.00000000       0.00000000 </v>
    <v>       0.20000000       0.20000000       0.00000000 </v>
    <v>       0.40000000       0.20000000       0.00000000 </v>
    <v>      -0.40000000       0.20000000       0.00000000 </v>
    <v>      -0.20000000       0.20000000       0.00000000 </v>
    <v>       0.40000000       0.40000000       0.00000000 </v>
    <v>      -0.40000000       0.40000000       0.00000000 </v>
    <v>       0.00000000       0.20000000       0.20000000 </v>
    <v>       0.40000000       0.20000000       0.20000000 </v>
    <v>      -0.40000000       0.20000000       0.20000000 </v>
    <v>      -0.20000000       0.20000000       0.20000000 </v>
    <v>      -0.40000000       0.40000000       0.20000000 </v>
    <v>      -0.20000000       0.40000000       0.20000000 </v>
    <v>       0.40000000      -0.40000000       0.20000000 </v>
    <v>       0.00000000       0.40000000       0.40000000 </v>
    <v>      -0.20000000       0.40000000       0.40000000 </v>
   </varray>
   <varray name="weights" >
    <v>       0.00800000 </v>
    <v>       0.06400000 </v>
    <v>       0.06400000 </v>
    <v>       0.03200000 </v>
    <v>       0.12800000 </v>
    <v>       0.12800000 </v>
    <v>       0.06400000 </v>
    <v>       0.03200000 </v>
    <v>       0.06400000 </v>
    <v>       0.01600000 </v>
    <v>       0.03200000 </v>
    <v>       0.06400000 </v>
    <v>       0.06400000 </v>
    <v>       0.06400000 </v>
    <v>       0.06400000 </v>
    <v>       0.06400000 </v>
    <v>       0.01600000 </v>
    <v>       0.03200000 </v>
   </varray>
  </kpoints>
  <time name="totalsc"> 6780.98 6776.98</time>
 </calculation>
 <calculation>
  <scstep>
   <time name="dav">  816.58  815.91</time>
   <time name="total">  849.85  851.39</time>
   <energy>
    <i name="alphaZ">   8628.10280496 </i>
    <i name="ewald">-146823.83058538 </i>
    <i name="hartreedc"> -63585.39107684 </i>
    <i name="XCdc">   5604.96495440 </i>
    <i name="pawpsdc"> 170787.99283899 </i>
    <i name="pawaedc">-179811.54411347 </i>
    <i name="eentropy">     -0.23743484 </i>
    <i name="bandstr"> -19175.00736839 </i>
    <i name="atom"> 224013.29143063 </i>
    <i name="e_fr_energy">   -361.65854993 </i>
    <i name="e_wo_entrp">   -361.42111509 </i>
    <i name="e_0_energy">   -361.57940499 </i>
   </energy>
  </scstep>
  <scstep>
   <time name="dav">  671.46  670.92</time>
   <time name="total">  705.53  704.97</time>
   <energy>
    <i name="e_fr_energy">   -361.73408258 </i>
    <i name="e_wo_entrp">   -361.49679023 </i>
    <i name="e_0_energy">   -361.65498513 </i>
   </energy>
  </scstep>
  <scstep>
   <time name="dav">  763.29  762.66</time>
   <time name="total">  797.31  796.66</time>
   <energy>
    <i name="e_fr_energy">   -361.73538276 </i>
    <i name="e_wo_entrp">   -361.49801714 </i>
    <i name="e_0_energy">   -361.65626089 </i>
   </energy>
  </scstep>
  <scstep>
   <time name="dav">  758.80  758.18</time>
   <time name="total">  790.91  790.27</time>
   <energy>
    <i name="e_fr_energy">   -361.73515616 </i>
    <i name="e_wo_entrp">   -361.49781956 </i>
    <i name="e_0_energy">   -361.65604396 </i>
   </energy>
  </scstep>
  <scstep>
   <time name="dav">  704.87  704.30</time>
   <time name="total">  739.47  738.87</time>
   <energy>
    <i name="e_fr_energy">   -361.73342667 </i>
    <i name="e_wo_entrp">   -361.49599084 </i>
    <i name="e_0_energy">   -361.65428140 </i>
   </energy>
  </scstep>
  <scstep>
   <time name="dav">  829.99  829.31</time>
   <time name="total">  864.84  864.14</time>
   <energy>
    <i name="e_fr_energy">   -361.73341759 </i>
    <i name="e_wo_entrp">   -361.49597922 </i>
    <i name="e_0_energy">   -361.65427147 </i>
   </energy>
  </scstep>
  <scstep>
   <time name="dav">  721.82  721.22</time>
   <time name="total">  755.91  755.29</time>
   <energy>
    <i name="e_fr_energy">   -361.73337802 </i>
    <i name="e_wo_entrp">   -361.49593865 </i>
    <i name="e_0_energy">   -361.65423157 </i>
   </energy>
  </scstep>
  <scstep>
   <time name="dav">  719.43  718.84</time>
   <time name="total">  754.36  753.74</time>
   <energy>
    <i name="e_fr_energy">   -361.73335878 </i>
    <i name="e_wo_entrp">   -361.49591828 </i>
    <i name="e_0_energy">   -361.65421195 </i>
   </energy>
  </scstep>
  <scstep>
   <time name="dav">  725.11  724.52</time>
   <time name="total">  758.94  758.32</time>
   <energy>
    <i name="e_fr_energy">   -361.73338710 </i>
    <i name="e_wo_entrp">   -361.49594949 </i>
    <i name="e_0_energy">   -361.65424123 </i>
   </energy>
  </scstep>
  <scstep>
   <time name="dav">  806.37  805.71</time>
   <time name="total">  839.46  838.77</time>
   <energy>
    <i name="e_fr_energy">   -361.73327006 </i>
    <i name="e_wo_entrp">   -361.49583061 </i>
    <i name="e_0_energy">   -361.65412358 </i>
   </energy>
  </scstep>
  <scstep>
   <time name="dav">  819.35  818.68</time>
   <time name="total">  852.93  852.23</time>
   <energy>
    <i name="e_fr_energy">   -361.73327753 </i>
    <i name="e_wo_entrp">   -361.49583842 </i>
    <i name="e_0_energy">   -361.65413116 </i>
   </energy>
  </scstep>
  <scstep>
   <time name="dav">  706.00  705.42</time>
   <time name="total">  739.37  738.76</time>
   <energy>
    <i name="e_fr_energy">   -361.73327237 </i>
    <i name="e_wo_entrp">   -361.49583439 </i>
    <i name="e_0_energy">   -361.65412638 </i>
   </energy>
  </scstep>
  <scstep>
   <time name="dav">  537.76  537.32</time>
   <time name="total">  570.41  580.00</time>
   <energy>
    <i name="e_fr_energy">   -361.73327092 </i>
    <i name="e_wo_entrp">   -361.49583263 </i>
    <i name="e_0_energy">   -361.65412482 </i>
   </energy>
  </scstep>
  <scstep>
   <time name="dav">  419.16  418.82</time>
   <time name="total">  420.14  419.80</time>
   <energy>
    <i name="alphaZ">   8628.10280496 </i>
    <i name="ewald">-146823.83058538 </i>
    <i name="hartreedc"> -63585.37788678 </i>
    <i name="XCdc">   5604.96424866 </i>
    <i name="pawpsdc"> 170787.95655034 </i>
    <i name="pawaedc">-179811.50786475 </i>
    <i name="eentropy">     -0.23743918 </i>
    <i name="bandstr"> -19175.09452995 </i>
    <i name="atom"> 224013.29143063 </i>
    <i name="e_fr_energy">   -361.73327144 </i>
    <i name="e_wo_entrp">   -361.49583226 </i>
    <i name="e_0_energy">   -361.65412504 </i>
   </energy>
  </scstep>
  <structure>
   <crystal>
    <varray name="basis" >
     <v>       0.00000000       7.36725000       7.36725000 </v>
     <v>       7.36725000       0.00000000       7.36725000 </v>
     <v>       7.36725000       7.36725000       0.00000000 </v>
    </varray>
    <i name="volume">    799.73521152 </i>
    <varray name="rec_basis" >
     <v>      -0.06786793       0.06786793       0.06786793 </v>
     <v>       0.06786793      -0.06786793       0.06786793 </v>
     <v>       0.06786793       0.06786793      -0.06786793 </v>
    </varray>
   </crystal>
   <varray name="positions" >
    <v>      -0.00101802       0.00101802       0.00101802 </v>
    <v>       0.00000000       0.00000000       0.25000000 </v>
    <v>       0.00000000       0.00000000       0.50000000 </v>
    <v>       0.00000000       0.00000000       0.75000000 </v>
    <v>       0.00000000       0.25000000       0.00000000 </v>
    <v>       0.00000000       0.25000000       0.25000000 </v>
    <v>       0.00000000       0.25000000       0.50000000 </v>
    <v>       0.00000000       0.25000000       0.75000000 </v>
    <v>       0.00000000       0.50000000       0.00000000 </v>
    <v>       0.00000000       0.50000000       0.25000000 </v>
    <v>       0.00000000       0.50000000       0.50000000 </v>
    <v>       0.00000000       0.50000000       0.75000000 </v>
    <v>       0.00000000       0.75000000       0.00000000 </v>
    <v>       0.00000000       0.75000000       0.25000000 </v>
    <v>       0.00000000       0.75000000       0.50000000 </v>
    <v>       0.00000000       0.75000000       0.75000000 </v>
    <v>       0.25000000       0.00000000       0.00000000 </v>
    <v>       0.25000000       0.00000000       0.25000000 </v>
    <v>       0.25000000       0.00000000       0.50000000 </v>
    <v>       0.25000000       0.00000000       0.75000000 </v>
    <v>       0.25000000       0.25000000       0.00000000 </v>
    <v>       0.25000000       0.25000000       0.25000000 </v>
    <v>       0.25000000       0.25000000       0.50000000 </v>
    <v>       0.25000000       0.25000000       0.75000000 </v>
    <v>       0.25000000       0.50000000       0.00000000 </v>
    <v>       0.25000000       0.50000000       0.25000000 </v>
    <v>       0.25000000       0.50000000       0.50000000 </v>
    <v>       0.25000000       0.50000000       0.75000000 </v>
    <v>       0.25000000       0.75000000       0.00000000 </v>
    <v>       0.25000000       0.75000000       0.25000000 </v>
    <v>       0.25000000       0.75000000       0.50000000 </v>
    <v>       0.25000000       0.75000000       0.75000000 </v>
    <v>       0.50000000       0.00000000       0.00000000 </v>
    <v>       0.50000000       0.00000000       0.25000000 </v>
    <v>       0.50000000       0.00000000       0.50000000 </v>
    <v>       0.50000000       0.00000000       0.75000000 </v>
    <v>       0.50000000       0.25000000       0.00000000 </v>
    <v>       0.50000000       0.25000000       0.25000000 </v>
    <v>       0.50000000       0.25000000       0.50000000 </v>
    <v>       0.50000000       0.25000000       0.75000000 </v>
    <v>       0.50000000       0.50000000       0.00000000 </v>
    <v>       0.50000000       0.50000000       0.25000000 </v>
    <v>       0.50000000       0.50000000       0.50000000 </v>
    <v>       0.50000000       0.50000000       0.75000000 </v>
    <v>       0.50000000       0.75000000       0.00000000 </v>
    <v>       0.50000000       0.75000000       0.25000000 </v>
    <v>       0.50000000       0.75000000       0.50000000 </v>
    <v>       0.50000000       0.75000000       0.75000000 </v>
    <v>       0.75000000       0.00000000       0.00000000 </v>
    <v>       0.75000000       0.00000000       0.25000000 </v>
    <v>       0.75000000       0.00000000       0.50000000 </v>
    <v>       0.75000000       0.00000000       0.75000000 </v>
    <v>       0.75000000       0.25000000       0.00000000 </v>
    <v>       0.75000000       0.25000000       0.25000000 </v>
    <v>       0.75000000       0.25000000       0.50000000 </v>
    <v>       0.75000000       0.25000000       0.75000000 </v>
    <v>       0.75000000       0.50000000       0.00000000 </v>
    <v>       0.75000000       0.50000000       0.25000000 </v>
    <v>       0.75000000       0.50000000       0.50000000 </v>
    <v>       0.75000000       0.50000000       0.75000000 </v>
    <v>       0.75000000       0.75000000       0.00000000 </v>
    <v>       0.75000000       0.75000000       0.25000000 </v>
    <v>       0.75000000       0.75000000       0.50000000 </v>
    <v>       0.75000000       0.75000000       0.75000000 </v>
   </varray>
  </structure>
  <varray name="forces" >
   <v>      -0.07899857       0.00000000       0.00000000 </v>
   <v>       0.00820836       0.00853456       0.00000000 </v>
   <v>       0.00012710      -0.00015392       0.00000000 </v>
   <v>       0.00763709       0.00787627       0.00000000 </v>
   <v>       0.00820836       0.00000000       0.00853456 </v>
   <v>       0.00108113       0.00056950       0.00056950 </v>
   <v>       0.00022778       0.00052889      -0.00026716 </v>
   <v>       0.00075557       0.00000935      -0.00000935 </v>
   <v>       0.00012710       0.00000000      -0.00015392 </v>
   <v>       0.00022778      -0.00026716       0.00052889 </v>
   <v>       0.00006685       0.00000000       0.00000000 </v>
   <v>       0.00030161      -0.00031694       0.00056565 </v>
   <v>       0.00763709       0.00000000       0.00787627 </v>
   <v>       0.00075557      -0.00000935       0.00000935 </v>
   <v>       0.00030161       0.00056565      -0.00031694 </v>
   <v>       0.00103498       0.00050767       0.00050767 </v>
   <v>       0.00075557      -0.00000935      -0.00000935 </v>
   <v>       0.00030161       0.00056565       0.00031694 </v>
   <v>       0.00103498       0.00050767      -0.00050767 </v>
   <v>       0.00763709       0.00000000      -0.00787627 </v>
   <v>       0.00030161       0.00031694       0.00056565 </v>
   <v>       0.00010594       0.00000000       0.00000000 </v>
   <v>       0.00022778       0.00026716      -0.00052889 </v>
   <v>      -0.00057415       0.00000000       0.00001607 </v>
   <v>       0.00103498      -0.00050767       0.00050767 </v>
   <v>       0.00022778      -0.00052889       0.00026716 </v>
   <v>      -0.00025591      -0.00004372      -0.00004372 </v>
   <v>       0.00004060       0.00000000      -0.00015549 </v>
   <v>       0.00763709      -0.00787627       0.00000000 </v>
   <v>      -0.00057415       0.00001607       0.00000000 </v>
   <v>       0.00004060      -0.00015549       0.00000000 </v>
   <v>       0.00139264       0.00000000       0.00000000 </v>
   <v>       0.00006685       0.00000000       0.00000000 </v>
   <v>       0.00030161      -0.00031694      -0.00056565 </v>
   <v>       0.00012710       0.00000000       0.00015392 </v>
   <v>       0.00022778      -0.00026716      -0.00052889 </v>
   <v>       0.00030161      -0.00056565      -0.00031694 </v>
   <v>       0.00108113      -0.00056950      -0.00056950 </v>
   <v>      -0.00007400       0.00000000       0.00005819 </v>
   <v>      -0.00025591       0.00004372      -0.00004372 </v>
   <v>       0.00012710       0.00015392       0.00000000 </v>
   <v>      -0.00007400       0.00005819       0.00000000 </v>
   <v>      -0.00027979       0.00000000       0.00000000 </v>
   <v>       0.00004060       0.00015549       0.00000000 </v>
   <v>       0.00022778      -0.00052889      -0.00026716 </v>
   <v>      -0.00025591      -0.00004372       0.00004372 </v>
   <v>       0.00004060       0.00000000       0.00015549 </v>
   <v>       0.00103498      -0.00050767      -0.00050767 </v>
   <v>       0.00075557       0.00000935       0.00000935 </v>
   <v>       0.00820836       0.00000000      -0.00853456 </v>
   <v>       0.00108113       0.00056950      -0.00056950 </v>
   <v>       0.00022778       0.00052889       0.00026716 </v>
   <v>       0.00820836      -0.00853456       0.00000000 </v>
   <v>       0.00138200       0.00000000       0.00000000 </v>
   <v>      -0.00007400      -0.00005819       0.00000000 </v>
   <v>      -0.00057415      -0.00001607       0.00000000 </v>
   <v>       0.00108113      -0.00056950       0.00056950 </v>
   <v>      -0.00007400       0.00000000      -0.00005819 </v>
   <v>      -0.00025591       0.00004372       0.00004372 </v>
   <v>       0.00030161      -0.00056565       0.00031694 </v>
   <v>       0.00022778       0.00026716       0.00052889 </v>
   <v>      -0.00057415       0.00000000      -0.00001607 </v>
   <v>       0.00030161       0.00031694      -0.00056565 </v>
   <v>       0.00010594       0.00000000       0.00000000 </v>
  </varray>
  <varray name="stress" >
   <v>    -321.55527977       0.00000000       0.00000000 </v>
   <v>       0.00000000    -321.55342094       0.00000000 </v>
   <v>       0.00000000       0.00000000    -321.55342094 </v>
  </varray>
  <energy>
   <i name="e_fr_energy">   -361.73327144 </i>
   <i name="e_wo_entrp">   -361.65412504 </i>
   <i name="e_0_energy">     -0.23743918 </i>
  </energy>
  <kpoints>
   <generation param="Gamma">
    <v type="int" name="divisions">       5        5        5 </v>
    <v name="usershift">      0.00000000       0.00000000       0.00000000 </v>
    <v name="genvec1">      0.20000000       0.00000000       0.00000000 </v>
    <v name="genvec2">      0.00000000       0.20000000       0.00000000 </v>
    <v name="genvec3">      0.00000000       0.00000000       0.20000000 </v>
    <v name="shift">      0.00000000       0.00000000       0.00000000 </v>
   </generation>
   <varray name="kpointlist" >
    <v>       0.00000000       0.00000000       0.00000000 </v>
    <v>       0.20000000       0.00000000       0.00000000 </v>
    <v>       0.40000000       0.00000000       0.00000000 </v>
    <v>       0.20000000       0.20000000       0.00000000 </v>
    <v>       0.40000000       0.20000000       0.00000000 </v>
    <v>      -0.40000000       0.20000000       0.00000000 </v>
    <v>      -0.20000000       0.20000000       0.00000000 </v>
    <v>       0.40000000       0.40000000       0.00000000 </v>
    <v>      -0.40000000       0.40000000       0.00000000 </v>
    <v>       0.00000000       0.20000000       0.20000000 </v>
    <v>       0.40000000       0.20000000       0.20000000 </v>
    <v>      -0.40000000       0.20000000       0.20000000 </v>
    <v>      -0.20000000       0.20000000       0.20000000 </v>
    <v>      -0.40000000       0.40000000       0.20000000 </v>
    <v>      -0.20000000       0.40000000       0.20000000 </v>
    <v>       0.40000000      -0.40000000       0.20000000 </v>
    <v>       0.00000000       0.40000000       0.40000000 </v>
    <v>      -0.20000000       0.40000000       0.40000000 </v>
   </varray>
   <varray name="weights" >
    <v>       0.00800000 </v>
    <v>       0.06400000 </v>
    <v>       0.06400000 </v>
    <v>       0.03200000 </v>
    <v>       0.12800000 </v>
    <v>       0.12800000 </v>
    <v>       0.06400000 </v>
    <v>       0.03200000 </v>
    <v>       0.06400000 </v>
    <v>       0.01600000 </v>
    <v>       0.03200000 </v>
    <v>       0.06400000 </v>
    <v>       0.06400000 </v>
    <v>       0.06400000 </v>
    <v>       0.06400000 </v>
    <v>       0.06400000 </v>
    <v>       0.01600000 </v>
    <v>       0.03200000 </v>
   </varray>
  </kpoints>
  <time name="totalsc">11298.0411301.10</time>
 </calculation>
 <calculation>
  <scstep>
   <time name="dav">  790.72  790.07</time>
   <time name="total">  821.10  820.43</time>
   <energy>
    <i name="alphaZ">   8628.10280496 </i>
    <i name="ewald">-146823.83058538 </i>
    <i name="hartreedc"> -63585.42021363 </i>
    <i name="XCdc">   5604.96649112 </i>
    <i name="pawpsdc"> 170787.95349035 </i>
    <i name="pawaedc">-179811.50470757 </i>
    <i name="eentropy">     -0.23736437 </i>
    <i name="bandstr"> -19174.79326162 </i>
    <i name="atom"> 224013.29143063 </i>
    <i name="e_fr_energy">   -361.47191551 </i>
    <i name="e_wo_entrp">   -361.23455114 </i>
    <i name="e_0_energy">   -361.39279406 </i>
   </energy>
  </scstep>
  <scstep>
   <time name="dav">  642.03  641.50</time>
   <time name="total">  672.33  671.78</time>
   <energy>
    <i name="e_fr_energy">   -361.74900669 </i>
    <i name="e_wo_entrp">   -361.51287044 </i>
    <i name="e_0_energy">   -361.67029461 </i>
   </energy>
  </scstep>
  <scstep>
   <time name="dav">  717.74  717.15</time>
   <time name="total">  747.99  747.38</time>
   <energy>
    <i name="e_fr_energy">   -361.73632998 </i>
    <i name="e_wo_entrp">   -361.49893479 </i>
    <i name="e_0_energy">   -361.65719825 </i>
   </energy>
  </scstep>
  <scstep>
   <time name="dav">  740.27  739.66</time>
   <time name="total">  770.26  769.62</time>
   <energy>
    <i name="e_fr_energy">   -361.74364894 </i>
    <i name="e_wo_entrp">   -361.50677123 </i>
    <i name="e_0_energy">   -361.66468970 </i>
   </energy>
  </scstep>
  <scstep>
   <time name="dav">  664.59  664.05</time>
   <time name="total">  694.70  694.13</time>
   <energy>
    <i name="e_fr_energy">   -361.73394394 </i>
    <i name="e_wo_entrp">   -361.49651033 </i>
    <i name="e_0_energy">   -361.65479941 </i>
   </energy>
  </scstep>
  <scstep>
   <time name="dav">  762.80  762.17</time>
   <time name="total">  792.98  792.33</time>
   <energy>
    <i name="e_fr_energy">   -361.73371630 </i>
    <i name="e_wo_entrp">   -361.49627118 </i>
    <i name="e_0_energy">   -361.65456793 </i>
   </energy>
  </scstep>
  <scstep>
   <time name="dav">  678.89  678.33</time>
   <time name="total">  708.97  708.39</time>
   <energy>
    <i name="e_fr_energy">   -361.73366151 </i>
    <i name="e_wo_entrp">   -361.49621761 </i>
    <i name="e_0_energy">   -361.65451354 </i>
   </energy>
  </scstep>
  <scstep>
   <time name="dav">  672.64  672.09</time>
   <time name="total">  702.80  702.23</time>
   <energy>
    <i name="e_fr_energy">   -361.73350232 </i>
    <i name="e_wo_entrp">   -361.49605909 </i>
    <i name="e_0_energy">   -361.65435457 </i>
   </energy>
  </scstep>
  <scstep>
   <time name="dav">  676.46  675.90</time>
   <time name="total">  706.67  706.09</time>
   <energy>
    <i name="e_fr_energy">   -361.73359204 </i>
    <i name="e_wo_entrp">   -361.49615254 </i>
    <i name="e_0_energy">   -361.65444554 </i>
   </energy>
  </scstep>
  <scstep>
   <time name="dav">  743.28  742.67</time>
   <time name="total">  773.54  772.90</time>
   <energy>
    <i name="e_fr_energy">   -361.73343844 </i>
    <i name="e_wo_entrp">   -361.49601075 </i>
    <i name="e_0_energy">   -361.65429588 </i>
   </energy>
  </scstep>
  <scstep>
   <time name="dav">  745.21  744.60</time>
   <time name="total">  775.47  774.84</time>
   <energy>
    <i name="e_fr_energy">   -361.73326653 </i>
    <i name="e_wo_entrp">   -361.49582715 </i>
    <i name="e_0_energy">   -361.65412007 </i>
   </energy>
  </scstep>
  <scstep>
   <time name="dav">  845.80  845.10</time>
   <time name="total">  876.02  875.30</time>
   <energy>
    <i name="e_fr_energy">   -361.73328816 </i>
    <i name="e_wo_entrp">   -361.49585166 </i>
    <i name="e_0_energy">   -361.65414266 </i>
   </energy>
  </scstep>
  <scstep>
   <time name="dav">  660.91  660.37</time>
   <time name="total">  691.10  690.54</time>
   <energy>
    <i name="e_fr_energy">   -361.73327147 </i>
    <i name="e_wo_entrp">   -361.49583252 </i>
    <i name="e_0_energy">   -361.65412515 </i>
   </energy>
  </scstep>
  <scstep>
   <time name="dav">  652.45  652.14</time>
   <time name="total">  690.32  689.98</time>
   <energy>
    <i name="e_fr_energy">   -361.73327388 </i>
    <i name="e_wo_entrp">   -361.49583567 </i>
    <i name="e_0_energy">   -361.65412781 </i>
   </energy>
  </scstep>
  <scstep>
   <time name="dav">  522.30  522.24</time>
   <time name="total">  560.41  560.33</time>
   <energy>
    <i name="e_fr_energy">   -361.73327094 </i>
    <i name="e_wo_entrp">   -361.49583031 </i>
    <i name="e_0_energy">   -361.65412406 </i>
   </energy>
  </scstep>
  <scstep>
   <time name="dav">  442.98  443.05</time>
   <time name="total">  444.02  444.09</time>
   <energy>
    <i name="alphaZ">   8628.10280496 </i>
    <i name="ewald">-146823.83058538 </i>
    <i name="hartreedc"> -63585.37566540 </i>
    <i name="XCdc">   5604.96417383 </i>
    <i name="pawpsdc"> 170787.94551510 </i>
    <i name="pawaedc">-179811.49819300 </i>
    <i name="eentropy">     -0.23743957 </i>
    <i name="bandstr"> -19175.09531256 </i>
    <i name="atom"> 224013.29143063 </i>
    <i name="e_fr_energy">   -361.73327139 </i>
    <i name="e_wo_entrp">   -361.49583181 </i>
    <i name="e_0_energy">   -361.65412486 </i>
   </energy>
  </scstep>
  <structure>
   <crystal>
    <varray name="basis" >
     <v>       0.00000000       7.36725000       7.36725000 </v>
     <v>       7.36725000       0.00000000       7.36725000 </v>
     <v>       7.36725000       7.36725000       0.00000000 </v>
    </varray>
    <i name="volume">    799.73521152 </i>
    <varray name="rec_basis" >
     <v>      -0.06786793       0.06786793       0.06786793 </v>
     <v>       0.06786793      -0.06786793       0.06786793 </v>
     <v>       0.06786793       0.06786793      -0.06786793 </v>
    </varray>
   </crystal>
   <varray name="positions" >
    <v>       0.00101802      -0.00101802      -0.00101802 </v>
    <v>       0.00000000       0.00000000       0.25000000 </v>
    <v>       0.00000000       0.00000000       0.50000000 </v>
    <v>       0.00000000       0.00000000       0.75000000 </v>
    <v>       0.00000000       0.25000000       0.00000000 </v>
    <v>       0.00000000       0.25000000       0.25000000 </v>
    <v>       0.00000000       0.25000000       0.50000000 </v>
    <v>       0.00000000       0.25000000       0.75000000 </v>
    <v>       0.00000000       0.50000000       0.00000000 </v>
    <v>       0.00000000       0.50000000       0.25000000 </v>
    <v>       0.00000000       0.50000000       0.50000000 </v>
    <v>       0.00000000       0.50000000       0.75000000 </v>
    <v>       0.00000000       0.75000000       0.00000000 </v>
    <v>       0.00000000       0.75000000       0.25000000 </v>
    <v>       0.00000000       0.75000000       0.50000000 </v>
    <v>       0.00000000       0.75000000       0.75000000 </v>
    <v>       0.25000000       0.00000000       0.00000000 </v>
    <v>       0.25000000       0.00000000       0.25000000 </v>
    <v>       0.25000000       0.00000000       0.50000000 </v>
    <v>       0.25000000       0.00000000       0.75000000 </v>
    <v>       0.25000000       0.25000000       0.00000000 </v>
    <v>       0.25000000       0.25000000       0.25000000 </v>
    <v>       0.25000000       0.25000000       0.50000000 </v>
    <v>       0.25000000       0.25000000       0.75000000 </v>
    <v>       0.25000000       0.50000000       0.00000000 </v>
    <v>       0.25000000       0.50000000       0.25000000 </v>
    <v>       0.25000000       0.50000000       0.50000000 </v>
    <v>       0.25000000       0.50000000       0.75000000 </v>
    <v>       0.25000000       0.75000000       0.00000000 </v>
    <v>       0.25000000       0.75000000       0.25000000 </v>
    <v>       0.25000000       0.75000000       0.50000000 </v>
    <v>       0.25000000       0.75000000       0.75000000 </v>
    <v>       0.50000000       0.00000000       0.00000000 </v>
    <v>       0.50000000       0.00000000       0.25000000 </v>
    <v>       0.50000000       0.00000000       0.50000000 </v>
    <v>       0.50000000       0.00000000       0.75000000 </v>
    <v>       0.50000000       0.25000000       0.00000000 </v>
    <v>       0.50000000       0.25000000       0.25000000 </v>
    <v>       0.50000000       0.25000000       0.50000000 </v>
    <v>       0.50000000       0.25000000       0.75000000 </v>
    <v>       0.50000000       0.50000000       0.00000000 </v>
    <v>       0.50000000       0.50000000       0.25000000 </v>
    <v>       0.50000000       0.50000000       0.50000000 </v>
    <v>       0.50000000       0.50000000       0.75000000 </v>
    <v>       0.50000000       0.75000000       0.00000000 </v>
    <v>       0.50000000       0.75000000       0.25000000 </v>
    <v>       0.50000000       0.75000000       0.50000000 </v>
    <v>       0.50000000       0.75000000       0.75000000 </v>
    <v>       0.75000000       0.00000000       0.00000000 </v>
    <v>       0.75000000       0.00000000       0.25000000 </v>
    <v>       0.75000000       0.00000000       0.50000000 </v>
    <v>       0.75000000       0.00000000       0.75000000 </v>
    <v>       0.75000000       0.25000000       0.00000000 </v>
    <v>       0.75000000       0.25000000       0.25000000 </v>
    <v>       0.75000000       0.25000000       0.50000000 </v>
    <v>       0.75000000       0.25000000       0.75000000 </v>
    <v>       0.75000000       0.50000000       0.00000000 </v>
    <v>       0.75000000       0.50000000       0.25000000 </v>
    <v>       0.75000000       0.50000000       0.50000000 </v>
    <v>       0.75000000       0.50000000       0.75000000 </v>
    <v>       0.75000000       0.75000000       0.00000000 </v>
    <v>       0.75000000       0.75000000       0.25000000 </v>
    <v>       0.75000000       0.75000000       0.50000000 </v>
    <v>       0.75000000       0.75000000       0.75000000 </v>
   </varray>
  </structure>
  <varray name="forces" >
   <v>       0.08013094       0.00000000      -0.00000000 </v>
   <v>      -0.00798826      -0.00841319      -0.00000000 </v>
   <v>      -0.00014077       0.00013597      -0.00000000 </v>
   <v>      -0.00852344      -0.00902619      -0.00000000 </v>
   <v>      -0.00798826       0.00000000      -0.00841319 </v>
   <v>      -0.00100962      -0.00050090      -0.00050090 </v>
   <v>      -0.00024005      -0.00056234       0.00030774 </v>
   <v>      -0.00058011       0.00000516      -0.00000516 </v>
   <v>      -0.00014077       0.00000000       0.00013597 </v>
   <v>      -0.00024005       0.00030774      -0.00056234 </v>
   <v>      -0.00003620       0.00000000      -0.00000000 </v>
   <v>      -0.00023383       0.00027774      -0.00049580 </v>
   <v>      -0.00852344       0.00000000      -0.00902619 </v>
   <v>      -0.00058011      -0.00000516       0.00000516 </v>
   <v>      -0.00023383      -0.00049580       0.00027774 </v>
   <v>      -0.00107106      -0.00053774      -0.00053774 </v>
   <v>      -0.00058011      -0.00000516      -0.00000516 </v>
   <v>      -0.00023383      -0.00049580      -0.00027774 </v>
   <v>      -0.00107106      -0.00053774       0.00053774 </v>
   <v>      -0.00852344       0.00000000       0.00902619 </v>
   <v>      -0.00023383      -0.00027774      -0.00049580 </v>
   <v>      -0.00011697       0.00000000      -0.00000000 </v>
   <v>      -0.00024005      -0.00030774       0.00056234 </v>
   <v>       0.00060938       0.00000000       0.00004720 </v>
   <v>      -0.00107106       0.00053774      -0.00053774 </v>
   <v>      -0.00024005       0.00056234      -0.00030774 </v>
   <v>       0.00030079      -0.00002908      -0.00002908 </v>
   <v>       0.00003326       0.00000000       0.00006929 </v>
   <v>      -0.00852344       0.00902619      -0.00000000 </v>
   <v>       0.00060938       0.00004720      -0.00000000 </v>
   <v>       0.00003326       0.00006929      -0.00000000 </v>
   <v>      -0.00145494       0.00000000      -0.00000000 </v>
   <v>      -0.00003620       0.00000000      -0.00000000 </v>
   <v>      -0.00023383       0.00027774       0.00049580 </v>
   <v>      -0.00014077       0.00000000      -0.00013597 </v>
   <v>      -0.00024005       0.00030774       0.00056234 </v>
   <v>      -0.00023383       0.00049580       0.00027774 </v>
   <v>      -0.00100962       0.00050090       0.00050090 </v>
   <v>      -0.00000312       0.00000000      -0.00012879 </v>
   <v>       0.00030079       0.00002908      -0.00002908 </v>
   <v>      -0.00014077      -0.00013597      -0.00000000 </v>
   <v>      -0.00000312      -0.00012879      -0.00000000 </v>
   <v>       0.00037235       0.00000000      -0.00000000 </v>
   <v>       0.00003326      -0.00006929      -0.00000000 </v>
   <v>      -0.00024005       0.00056234       0.00030774 </v>
   <v>       0.00030079      -0.00002908       0.00002908 </v>
   <v>       0.00003326       0.00000000      -0.00006929 </v>
   <v>      -0.00107106       0.00053774       0.00053774 </v>
   <v>      -0.00058011       0.00000516       0.00000516 </v>
   <v>      -0.00798826       0.00000000       0.00841319 </v>
   <v>      -0.00100962      -0.00050090       0.00050090 </v>
   <v>      -0.00024005      -0.00056234      -0.00030774 </v>
   <v>      -0.00798826       0.00841319      -0.00000000 </v>
   <v>      -0.00145917       0.00000000      -0.00000000 </v>
   <v>      -0.00000312       0.00012879      -0.00000000 </v>
   <v>       0.00060938      -0.00004720      -0.00000000 </v>
   <v>      -0.00100962       0.00050090      -0.00050090 </v>
   <v>      -0.00000312       0.00000000       0.00012879 </v>
   <v>       0.00030079       0.00002908       0.00002908 </v>
   <v>      -0.00023383       0.00049580      -0.00027774 </v>
   <v>      -0.00024005      -0.00030774      -0.00056234 </v>
   <v>       0.00060938       0.00000000      -0.00004720 </v>
   <v>      -0.00023383      -0.00027774       0.00049580 </v>
   <v>      -0.00011697       0.00000000      -0.00000000 </v>
  </varray>
  <varray name="stress" >
   <v>    -321.55544765       0.00000000       0.00000000 </v>
   <v>       0.00000000    -321.55126520       0.00000000 </v>
   <v>       0.00000000       0.00000000    -321.55126520 </v>
  </varray>
  <energy>
   <i name="e_fr_energy">   -361.73327139 </i>
   <i name="e_wo_entrp">   -361.65412486 </i>
   <i name="e_0_energy">     -0.23743957 </i>
  </energy>
  <dynmat>
   <varray name="hessian" >
    <v>      -0.09037854       0.00000000       0.00000000       0.00918871       0.00961271      -0.00000000       0.00015213      -0.00016464      -0.00000000       0.00918871       0.00961271       0.00000000       0.00918871      -0.00000000       0.00961271       0.00119180       0.00060608       0.00060608       0.00028491       0.00060608      -0.00033214       0.00075861      -0.00000000       0.00000000       0.00015213       0.00000000      -0.00016464       0.00028491      -0.00033214       0.00060608       0.00005853      -0.00000000      -0.00000000       0.00028491      -0.00033214       0.00060608       0.00918871       0.00000000       0.00961271       0.00075861       0.00000000       0.00000000       0.00028491       0.00060608      -0.00033214       0.00119180       0.00060608       0.00060608       0.00075861       0.00000000       0.00000000       0.00028491       0.00060608       0.00033214       0.00119180       0.00060608      -0.00060608       0.00918871       0.00000000      -0.00961271       0.00028491       0.00033214       0.00060608       0.00012661       0.00000000      -0.00000000       0.00028491       0.00033214      -0.00060608      -0.00067220       0.00000000      -0.00000000       0.00119180      -0.00060608       0.00060608       0.00028491      -0.00060608       0.00033214      -0.00031618       0.00000000      -0.00000000      -0.00001804       0.00000000      -0.00011693       0.00918871      -0.00961271       0.00000000      -0.00067220      -0.00000000       0.00000000      -0.00001804      -0.00011693      -0.00000000       0.00161548       0.00000000       0.00000000       0.00005853       0.00000000       0.00000000       0.00028491      -0.00033214      -0.00060608       0.00015213      -0.00000000       0.00016464       0.00028491      -0.00033214      -0.00060608       0.00028491      -0.00060608      -0.00033214       0.00119180      -0.00060608      -0.00060608      -0.00001804       0.00000000       0.00011693      -0.00031618       0.00000000       0.00000000       0.00015213       0.00016464       0.00000000      -0.00001804       0.00011693      -0.00000000      -0.00037038       0.00000000       0.00000000      -0.00001804       0.00011693       0.00000000       0.00028491      -0.00060608      -0.00033214      -0.00031618      -0.00000000      -0.00000000      -0.00001804      -0.00000000       0.00011693       0.00119180      -0.00060608      -0.00060608       0.00075861       0.00000000      -0.00000000       0.00918871      -0.00000000      -0.00961271       0.00119180       0.00060608      -0.00060608       0.00028491       0.00060608       0.00033214       0.00918871      -0.00961271      -0.00000000       0.00161548      -0.00000000       0.00000000      -0.00001804      -0.00011693       0.00000000      -0.00067220       0.00000000       0.00000000       0.00119180      -0.00060608       0.00060608      -0.00001804      -0.00000000      -0.00011693      -0.00031618      -0.00000000       0.00000000       0.00028491      -0.00060608       0.00033214       0.00028491       0.00033214       0.00060608      -0.00067220       0.00000000       0.00000000       0.00028491       0.00033214      -0.00060608       0.00012661       0.00000000      -0.00000000 </v>
    <v>       0.00000000      -0.09037854       0.00000000       0.00961271       0.00918871      -0.00000000      -0.00016464       0.00015213      -0.00000000       0.00961271       0.00918871       0.00000000       0.00000000       0.00075861       0.00000000       0.00060608       0.00028491       0.00033214       0.00060608       0.00119180      -0.00060608       0.00000000       0.00918871      -0.00961271       0.00000000       0.00005853       0.00000000      -0.00033214       0.00028491      -0.00060608      -0.00000000       0.00015213       0.00016464      -0.00033214       0.00028491      -0.00060608      -0.00000000       0.00075861      -0.00000000      -0.00000000       0.00918871      -0.00961271       0.00060608       0.00119180      -0.00060608       0.00060608       0.00028491       0.00033214       0.00000000       0.00918871       0.00961271       0.00060608       0.00119180       0.00060608       0.00060608       0.00028491      -0.00033214      -0.00000000       0.00075861       0.00000000       0.00033214       0.00028491       0.00060608       0.00000000       0.00012661       0.00000000       0.00033214       0.00028491      -0.00060608       0.00000000      -0.00067220      -0.00000000      -0.00060608       0.00028491      -0.00033214      -0.00060608       0.00119180      -0.00060608      -0.00000000      -0.00001804       0.00011693      -0.00000000      -0.00031618      -0.00000000      -0.00961271       0.00918871      -0.00000000       0.00000000       0.00161548       0.00000000      -0.00011693      -0.00001804      -0.00000000      -0.00000000      -0.00067220      -0.00000000       0.00000000       0.00015213      -0.00016464      -0.00033214       0.00028491       0.00060608      -0.00000000       0.00005853       0.00000000      -0.00033214       0.00028491       0.00060608      -0.00060608       0.00119180       0.00060608      -0.00060608       0.00028491       0.00033214      -0.00000000      -0.00031618       0.00000000      -0.00000000      -0.00001804      -0.00011693       0.00016464       0.00015213      -0.00000000       0.00011693      -0.00001804       0.00000000       0.00000000      -0.00037038      -0.00000000       0.00011693      -0.00001804      -0.00000000      -0.00060608       0.00119180       0.00060608       0.00000000      -0.00001804      -0.00011693       0.00000000      -0.00031618      -0.00000000      -0.00060608       0.00028491       0.00033214       0.00000000       0.00918871       0.00961271       0.00000000       0.00075861       0.00000000       0.00060608       0.00028491      -0.00033214       0.00060608       0.00119180       0.00060608      -0.00961271       0.00918871       0.00000000       0.00000000      -0.00067220      -0.00000000      -0.00011693      -0.00001804       0.00000000      -0.00000000       0.00161548       0.00000000      -0.00060608       0.00028491      -0.00033214       0.00000000      -0.00031618       0.00000000       0.00000000      -0.00001804       0.00011693      -0.00060608       0.00119180      -0.00060608       0.00033214       0.00028491       0.00060608       0.00000000      -0.00067220       0.00000000       0.00033214       0.00028491      -0.00060608       0.00000000       0.00012661       0.00000000 </v>
[...]
       <r>    20.5265     0.0000   648.0000 </r>
       <r>    20.8070     0.0000   648.0000 </r>
       <r>    21.0875     0.0000   648.0000 </r>
       <r>    21.3680     0.0000   648.0000 </r>
       <r>    21.6485     0.0000   648.0000 </r>
       <r>    21.9290     0.0000   648.0000 </r>
       <r>    22.2094     0.0000   648.0000 </r>
       <r>    22.4899     0.0000   648.0000 </r>
       <r>    22.7704     0.0000   648.0000 </r>
      </set>
      <set comment="spin 2">
       <r>   -61.3768     0.0000     0.0000 </r>
       <r>   -61.0964     0.0000     0.0000 </r>
       <r>   -60.8159     0.0000     0.0000 </r>
       <r>   -60.5354     0.0000     0.0000 </r>
       <r>   -60.2549     0.0000     0.0000 </r>
       <r>   -59.9744     0.0000     0.0000 </r>
       <r>   -59.6939     0.0000     0.0000 </r>
       <r>   -59.4134     0.0000     0.0000 </r>
       <r>   -59.1329     0.0000     0.0000 </r>
       <r>   -58.8524     0.0000     0.0000 </r>
       <r>   -58.5719    -0.0000    -0.0000 </r>
       <r>   -58.2914    -0.0000    -0.0000 </r>
       <r>   -58.0110    -0.0000    -0.0000 </r>
       <r>   -57.7305    -0.0000    -0.0000 </r>
       <r>   -57.4500    -0.0001    -0.0000 </r>
       <r>   -57.1695    -0.3310    -0.0929 </r>
       <r>   -56.8890   -20.0926    -5.7286 </r>
       <r>   -56.6085   384.3634   102.0818 </r>
       <r>   -56.3280   340.2103   197.5077 </r>
       <r>   -56.0475   -19.4241   192.0594 </r>
       <r>   -55.7670    -0.2118   192.0000 </r>
       <r>   -55.4865    -0.0000   192.0000 </r>
       <r>   -55.2060    -0.0000   192.0000 </r>
       <r>   -54.9256     0.0000   192.0000 </r>
       <r>   -54.6451     0.0000   192.0000 </r>
       <r>   -54.3646     0.0000   192.0000 </r>
       <r>   -54.0841     0.0000   192.0000 </r>
       <r>   -53.8036     0.0000   192.0000 </r>
       <r>   -53.5231     0.0000   192.0000 </r>
       <r>   -53.2426     0.0000   192.0000 </r>
       <r>   -52.9621     0.0000   192.0000 </r>
       <r>   -52.6816     0.0000   192.0000 </r>
       <r>   -52.4011     0.0000   192.0000 </r>
       <r>   -52.1206     0.0000   192.0000 </r>
       <r>   -51.8402     0.0000   192.0000 </r>
       <r>   -51.5597     0.0000   192.0000 </r>
       <r>   -51.2792     0.0000   192.0000 </r>
       <r>   -50.9987     0.0000   192.0000 </r>
       <r>   -50.7182     0.0000   192.0000 </r>
       <r>   -50.4377     0.0000   192.0000 </r>
       <r>   -50.1572     0.0000   192.0000 </r>
       <r>   -49.8767     0.0000   192.0000 </r>
       <r>   -49.5962     0.0000   192.0000 </r>
       <r>   -49.3157     0.0000   192.0000 </r>
       <r>   -49.0352     0.0000   192.0000 </r>
       <r>   -48.7548     0.0000   192.0000 </r>
       <r>   -48.4743     0.0000   192.0000 </r>
       <r>   -48.1938     0.0000   192.0000 </r>
       <r>   -47.9133     0.0000   192.0000 </r>
       <r>   -47.6328     0.0000   192.0000 </r>
       <r>   -47.3523     0.0000   192.0000 </r>
       <r>   -47.0718     0.0000   192.0000 </r>
       <r>   -46.7913     0.0000   192.0000 </r>
       <r>   -46.5108     0.0000   192.0000 </r>
       <r>   -46.2303     0.0000   192.0000 </r>
       <r>   -45.9498     0.0000   192.0000 </r>
       <r>   -45.6694     0.0000   192.0000 </r>
       <r>   -45.3889     0.0000   192.0000 </r>
       <r>   -45.1084     0.0000   192.0000 </r>
       <r>   -44.8279     0.0000   192.0000 </r>
       <r>   -44.5474     0.0000   192.0000 </r>
       <r>   -44.2669     0.0000   192.0000 </r>
       <r>   -43.9864     0.0000   192.0000 </r>
       <r>   -43.7059     0.0000   192.0000 </r>
       <r>   -43.4254     0.0000   192.0000 </r>
       <r>   -43.1449     0.0000   192.0000 </r>
       <r>   -42.8644     0.0000   192.0000 </r>
       <r>   -42.5840     0.0000   192.0000 </r>
       <r>   -42.3035     0.0000   192.0000 </r>
       <r>   -42.0230     0.0000   192.0000 </r>
       <r>   -41.7425     0.0000   192.0000 </r>
       <r>   -41.4620     0.0000   192.0000 </r>
       <r>   -41.1815     0.0000   192.0000 </r>
       <r>   -40.9010     0.0000   192.0000 </r>
       <r>   -40.6205     0.0000   192.0000 </r>
       <r>   -40.3400     0.0000   192.0000 </r>
       <r>   -40.0595     0.0000   192.0000 </r>
       <r>   -39.7790     0.0000   192.0000 </r>
       <r>   -39.4986     0.0000   192.0000 </r>
       <r>   -39.2181     0.0000   192.0000 </r>
       <r>   -38.9376     0.0000   192.0000 </r>
       <r>   -38.6571     0.0000   192.0000 </r>
       <r>   -38.3766     0.0000   192.0000 </r>
       <r>   -38.0961     0.0000   192.0000 </r>
       <r>   -37.8156     0.0000   192.0000 </r>
       <r>   -37.5351     0.0000   192.0000 </r>
       <r>   -37.2546     0.0000   192.0000 </r>
       <r>   -36.9741     0.0000   192.0000 </r>
       <r>   -36.6936     0.0000   192.0000 </r>
       <r>   -36.4132     0.0000   192.0000 </r>
       <r>   -36.1327     0.0000   192.0000 </r>
       <r>   -35.8522     0.0000   192.0000 </r>
       <r>   -35.5717     0.0000   192.0000 </r>
       <r>   -35.2912     0.0000   192.0000 </r>
       <r>   -35.0107     0.0000   192.0000 </r>
       <r>   -34.7302     0.0000   192.0000 </r>
       <r>   -34.4497     0.0000   192.0000 </r>
       <r>   -34.1692     0.0000   192.0000 </r>
       <r>   -33.8887     0.0000   192.0000 </r>
       <r>   -33.6082     0.0000   192.0000 </r>
       <r>   -33.3278     0.0000   192.0000 </r>
       <r>   -33.0473     0.0000   192.0000 </r>
       <r>   -32.7668     0.0000   192.0000 </r>
       <r>   -32.4863     0.0000   192.0000 </r>
       <r>   -32.2058     0.0000   192.0000 </r>
       <r>   -31.9253     0.0000   192.0000 </r>
       <r>   -31.6448     0.0000   192.0000 </r>
       <r>   -31.3643     0.0000   192.0000 </r>
       <r>   -31.0838     0.0000   192.0000 </r>
       <r>   -30.8033     0.0000   192.0000 </r>
       <r>   -30.5228     0.0000   192.0000 </r>
       <r>   -30.2424     0.0000   192.0000 </r>
       <r>   -29.9619     0.0000   192.0000 </r>
       <r>   -29.6814     0.0000   192.0000 </r>
       <r>   -29.4009     0.0000   192.0000 </r>
       <r>   -29.1204     0.0000   192.0000 </r>
       <r>   -28.8399     0.0000   192.0000 </r>
       <r>   -28.5594     0.0000   192.0000 </r>
       <r>   -28.2789     0.0000   192.0000 </r>
       <r>   -27.9984     0.0000   192.0000 </r>
       <r>   -27.7179     0.0000   192.0000 </r>
       <r>   -27.4374     0.0000   192.0000 </r>
       <r>   -27.1570     0.0000   192.0000 </r>
       <r>   -26.8765     0.0000   192.0000 </r>
       <r>   -26.5960     0.0000   192.0000 </r>
       <r>   -26.3155     0.0000   192.0000 </r>
       <r>   -26.0350     0.0000   192.0000 </r>
       <r>   -25.7545     0.0000   192.0000 </r>
       <r>   -25.4740     0.0000   192.0000 </r>
       <r>   -25.1935     0.0000   192.0000 </r>
       <r>   -24.9130     0.0000   192.0000 </r>
       <r>   -24.6325     0.0000   192.0000 </r>
       <r>   -24.3520     0.0000   192.0000 </r>
       <r>   -24.0716     0.0000   192.0000 </r>
       <r>   -23.7911     0.0000   192.0000 </r>
       <r>   -23.5106     0.0000   192.0000 </r>
       <r>   -23.2301     0.0000   192.0000 </r>
       <r>   -22.9496     0.0000   192.0000 </r>
       <r>   -22.6691     0.0000   192.0000 </r>
       <r>   -22.3886     0.0000   192.0000 </r>
       <r>   -22.1081     0.0000   192.0000 </r>
       <r>   -21.8276     0.0000   192.0000 </r>
       <r>   -21.5471     0.0000   192.0000 </r>
       <r>   -21.2666     0.0000   192.0000 </r>
       <r>   -20.9862     0.0000   192.0000 </r>
       <r>   -20.7057     0.0000   192.0000 </r>
       <r>   -20.4252     0.0000   192.0000 </r>
       <r>   -20.1447     0.0000   192.0000 </r>
       <r>   -19.8642     0.0000   192.0000 </r>
       <r>   -19.5837     0.0000   192.0000 </r>
       <r>   -19.3032     0.0000   192.0000 </r>
       <r>   -19.0227     0.0000   192.0000 </r>
       <r>   -18.7422     0.0000   192.0000 </r>
       <r>   -18.4617     0.0000   192.0000 </r>
       <r>   -18.1812     0.0000   192.0000 </r>
       <r>   -17.9008     0.0000   192.0000 </r>
       <r>   -17.6203     0.0000   192.0000 </r>
       <r>   -17.3398     0.0000   192.0000 </r>
       <r>   -17.0593     0.0000   192.0000 </r>
       <r>   -16.7788     0.0000   192.0000 </r>
       <r>   -16.4983     0.0000   192.0000 </r>
       <r>   -16.2178     0.0000   192.0000 </r>
       <r>   -15.9373     0.0000   192.0000 </r>
       <r>   -15.6568     0.0000   192.0000 </r>
       <r>   -15.3763     0.0000   192.0000 </r>
       <r>   -15.0958     0.0000   192.0000 </r>
       <r>   -14.8154     0.0000   192.0000 </r>
       <r>   -14.5349     0.0000   192.0000 </r>
       <r>   -14.2544     0.0000   192.0000 </r>
       <r>   -13.9739     0.0000   192.0000 </r>
       <r>   -13.6934     0.0000   192.0000 </r>
       <r>   -13.4129     0.0000   192.0000 </r>
       <r>   -13.1324     0.0000   192.0000 </r>
       <r>   -12.8519     0.0000   192.0000 </r>
       <r>   -12.5714     0.0000   192.0000 </r>
       <r>   -12.2909     0.0000   192.0000 </r>
       <r>   -12.0104     0.0000   192.0000 </r>
       <r>   -11.7300     0.0000   192.0000 </r>
       <r>   -11.4495     0.0000   192.0000 </r>
       <r>   -11.1690     0.0000   192.0000 </r>
       <r>   -10.8885     0.0000   192.0000 </r>
       <r>   -10.6080     0.0000   192.0000 </r>
       <r>   -10.3275     0.0000   192.0000 </r>
       <r>   -10.0470     0.0000   192.0000 </r>
       <r>    -9.7665     0.0000   192.0000 </r>
       <r>    -9.4860     0.0000   192.0000 </r>
       <r>    -9.2055     0.0000   192.0000 </r>
       <r>    -8.9250     0.0000   192.0000 </r>
       <r>    -8.6446     0.0000   192.0000 </r>
       <r>    -8.3641     0.0000   192.0000 </r>
       <r>    -8.0836     0.0000   192.0000 </r>
       <r>    -7.8031     0.0000   192.0000 </r>
       <r>    -7.5226     0.0000   192.0000 </r>
       <r>    -7.2421     0.0000   192.0000 </r>
       <r>    -6.9616     0.0000   192.0000 </r>
       <r>    -6.6811     0.0000   192.0000 </r>
       <r>    -6.4006     0.0000   192.0000 </r>
       <r>    -6.1201     0.0000   192.0000 </r>
       <r>    -5.8396     0.0000   192.0000 </r>
       <r>    -5.5592     0.0000   192.0000 </r>
       <r>    -5.2787     0.0000   192.0000 </r>
       <r>    -4.9982     0.0000   192.0000 </r>
       <r>    -4.7177     0.0000   192.0000 </r>
       <r>    -4.4372     0.0000   192.0000 </r>
       <r>    -4.1567     0.0000   192.0000 </r>
       <r>    -3.8762     0.0000   192.0000 </r>
       <r>    -3.5957    -0.0000   192.0000 </r>
       <r>    -3.3152    -0.0000   192.0000 </r>
       <r>    -3.0347    -0.0000   192.0000 </r>
       <r>    -2.7542    -0.0000   192.0000 </r>
       <r>    -2.4738    -0.0000   192.0000 </r>
       <r>    -2.1933    -0.0067   191.9981 </r>
       <r>    -1.9128     0.0571   192.0141 </r>
       <r>    -1.6323     0.9112   192.2697 </r>
       <r>    -1.3518     1.6441   192.7309 </r>
       <r>    -1.0713     2.1132   193.3236 </r>
       <r>    -0.7908     2.8942   194.1354 </r>
       <r>    -0.5103     2.6202   194.8703 </r>
       <r>    -0.2298     4.0458   196.0051 </r>
       <r>     0.0507     3.2983   196.9303 </r>
       <r>     0.3312     4.8010   198.2769 </r>
       <r>     0.6116     4.3695   199.5025 </r>
       <r>     0.8921     5.5937   201.0715 </r>
       <r>     1.1726     6.2198   202.8161 </r>
       <r>     1.4531     5.7571   204.4309 </r>
       <r>     1.7336     8.8656   206.9177 </r>
       <r>     2.0141     7.9927   209.1595 </r>
       <r>     2.2946    12.5408   212.6771 </r>
       <r>     2.5751    16.1201   217.1987 </r>
       <r>     2.8556    29.4101   225.4479 </r>
       <r>     3.1361    33.5652   234.8627 </r>
       <r>     3.4166    40.4698   246.2141 </r>
       <r>     3.6970    61.7714   263.5404 </r>
       <r>     3.9775    62.7508   281.1414 </r>
       <r>     4.2580    62.2359   298.5980 </r>
       <r>     4.5385    83.3200   321.9685 </r>
       <r>     4.8190   100.5629   350.1755 </r>
       <r>     5.0995   111.9048   381.5637 </r>
       <r>     5.3800    87.9097   406.2216 </r>
       <r>     5.6605    91.3923   431.8563 </r>
       <r>     5.9410    96.4219   458.9018 </r>
       <r>     6.2215    93.5601   485.1446 </r>
       <r>     6.5020   128.0876   521.0720 </r>
       <r>     6.7824    41.9606   532.8415 </r>
       <r>     7.0629    11.2808   536.0057 </r>
       <r>     7.3434    13.0554   539.6676 </r>
       <r>     7.6239    13.1069   543.3440 </r>
       <r>     7.9044    10.0549   546.1643 </r>
       <r>     8.1849     9.9417   548.9528 </r>
       <r>     8.4654    12.1678   552.3658 </r>
       <r>     8.7459     9.1170   554.9230 </r>
       <r>     9.0264     7.2150   556.9468 </r>
       <r>     9.3069    11.6722   560.2207 </r>
       <r>     9.5874     8.2336   562.5302 </r>
       <r>     9.8678     5.7337   564.1384 </r>
       <r>    10.1483     6.8566   566.0617 </r>
       <r>    10.4288     8.8204   568.5357 </r>
       <r>    10.7093     5.2338   570.0037 </r>
       <r>    10.9898     3.9530   571.1125 </r>
       <r>    11.2703     4.9188   572.4922 </r>
       <r>    11.5508     6.9920   574.4534 </r>
       <r>    11.8313     9.9118   577.2335 </r>
       <r>    12.1118     9.8138   579.9862 </r>
       <r>    12.3923    11.9397   583.3352 </r>
       <r>    12.6728     9.9035   586.1131 </r>
       <r>    12.9532     8.6822   588.5484 </r>
       <r>    13.2337     7.9811   590.7870 </r>
       <r>    13.5142     9.4189   593.4289 </r>
       <r>    13.7947    10.0884   596.2586 </r>
       <r>    14.0752     6.5978   598.1092 </r>
       <r>    14.3557     6.2763   599.8697 </r>
       <r>    14.6362     8.0246   602.1205 </r>
       <r>    14.9167    12.1721   605.5347 </r>
       <r>    15.1972    10.1424   608.3795 </r>
       <r>    15.4777    13.5409   612.1776 </r>
       <r>    15.7582    10.7028   615.1796 </r>
       <r>    16.0386    11.0662   618.2836 </r>
       <r>    16.3191    11.5196   621.5148 </r>
       <r>    16.5996    14.4760   625.5751 </r>
       <r>    16.8801    14.3073   629.5882 </r>
       <r>    17.1606     9.7419   632.3207 </r>
       <r>    17.4411    12.5238   635.8335 </r>
       <r>    17.7216    11.7132   639.1190 </r>
       <r>    18.0021    14.8405   643.2816 </r>
       <r>    18.2826     8.7596   645.7386 </r>
       <r>    18.5631     7.6154   647.8746 </r>
       <r>    18.8436     0.0271   647.8822 </r>
       <r>    19.1240     0.4259   648.0017 </r>
       <r>    19.4045    -0.0046   648.0004 </r>
       <r>    19.6850    -0.0014   648.0000 </r>
       <r>    19.9655    -0.0000   648.0000 </r>
       <r>    20.2460    -0.0000   648.0000 </r>
       <r>    20.5265     0.0000   648.0000 </r>
       <r>    20.8070     0.0000   648.0000 </r>
       <r>    21.0875     0.0000   648.0000 </r>
       <r>    21.3680     0.0000   648.0000 </r>
       <r>    21.6485     0.0000   648.0000 </r>
       <r>    21.9290     0.0000   648.0000 </r>
       <r>    22.2094     0.0000   648.0000 </r>
       <r>    22.4899     0.0000   648.0000 </r>
       <r>    22.7704     0.0000   648.0000 </r>
      </set>
     </set>
    </array>
   </total>
  </dos>
 </calculation>
 <structure name="finalpos" >
  <crystal>
   <varray name="basis" >
    <v>       0.00000000       7.36725000       7.36725000 </v>
    <v>       7.36725000       0.00000000       7.36725000 </v>
    <v>       7.36725000       7.36725000       0.00000000 </v>
   </varray>
   <i name="volume">    799.73521152 </i>
   <varray name="rec_basis" >
    <v>      -0.06786793       0.06786793       0.06786793 </v>
    <v>       0.06786793      -0.06786793       0.06786793 </v>
    <v>       0.06786793       0.06786793      -0.06786793 </v>
   </varray>
  </crystal>
  <varray name="positions" >
   <v>       0.00101802      -0.00101802      -0.00101802 </v>
   <v>       0.00000000       0.00000000       0.25000000 </v>
   <v>       0.00000000       0.00000000       0.50000000 </v>
   <v>       0.00000000       0.00000000       0.75000000 </v>
   <v>       0.00000000       0.25000000       0.00000000 </v>
   <v>       0.00000000       0.25000000       0.25000000 </v>
   <v>       0.00000000       0.25000000       0.50000000 </v>
   <v>       0.00000000       0.25000000       0.75000000 </v>
   <v>       0.00000000       0.50000000       0.00000000 </v>
   <v>       0.00000000       0.50000000       0.25000000 </v>
   <v>       0.00000000       0.50000000       0.50000000 </v>
   <v>       0.00000000       0.50000000       0.75000000 </v>
   <v>       0.00000000       0.75000000       0.00000000 </v>
   <v>       0.00000000       0.75000000       0.25000000 </v>
   <v>       0.00000000       0.75000000       0.50000000 </v>
   <v>       0.00000000       0.75000000       0.75000000 </v>
   <v>       0.25000000       0.00000000       0.00000000 </v>
   <v>       0.25000000       0.00000000       0.25000000 </v>
   <v>       0.25000000       0.00000000       0.50000000 </v>
   <v>       0.25000000       0.00000000       0.75000000 </v>
   <v>       0.25000000       0.25000000       0.00000000 </v>
   <v>       0.25000000       0.25000000       0.25000000 </v>
   <v>       0.25000000       0.25000000       0.50000000 </v>
   <v>       0.25000000       0.25000000       0.75000000 </v>
   <v>       0.25000000       0.50000000       0.00000000 </v>
   <v>       0.25000000       0.50000000       0.25000000 </v>
   <v>       0.25000000       0.50000000       0.50000000 </v>
   <v>       0.25000000       0.50000000       0.75000000 </v>
   <v>       0.25000000       0.75000000       0.00000000 </v>
   <v>       0.25000000       0.75000000       0.25000000 </v>
   <v>       0.25000000       0.75000000       0.50000000 </v>
   <v>       0.25000000       0.75000000       0.75000000 </v>
   <v>       0.50000000       0.00000000       0.00000000 </v>
   <v>       0.50000000       0.00000000       0.25000000 </v>
   <v>       0.50000000       0.00000000       0.50000000 </v>
   <v>       0.50000000       0.00000000       0.75000000 </v>
   <v>       0.50000000       0.25000000       0.00000000 </v>
   <v>       0.50000000       0.25000000       0.25000000 </v>
   <v>       0.50000000       0.25000000       0.50000000 </v>
   <v>       0.50000000       0.25000000       0.75000000 </v>
   <v>       0.50000000       0.50000000       0.00000000 </v>
   <v>       0.50000000       0.50000000       0.25000000 </v>
   <v>       0.50000000       0.50000000       0.50000000 </v>
   <v>       0.50000000       0.50000000       0.75000000 </v>
   <v>       0.50000000       0.75000000       0.00000000 </v>
   <v>       0.50000000       0.75000000       0.25000000 </v>
   <v>       0.50000000       0.75000000       0.50000000 </v>
   <v>       0.50000000       0.75000000       0.75000000 </v>
   <v>       0.75000000       0.00000000       0.00000000 </v>
   <v>       0.75000000       0.00000000       0.25000000 </v>
   <v>       0.75000000       0.00000000       0.50000000 </v>
   <v>       0.75000000       0.00000000       0.75000000 </v>
   <v>       0.75000000       0.25000000       0.00000000 </v>
   <v>       0.75000000       0.25000000       0.25000000 </v>
   <v>       0.75000000       0.25000000       0.50000000 </v>
   <v>       0.75000000       0.25000000       0.75000000 </v>
   <v>       0.75000000       0.50000000       0.00000000 </v>
   <v>       0.75000000       0.50000000       0.25000000 </v>
   <v>       0.75000000       0.50000000       0.50000000 </v>
   <v>       0.75000000       0.50000000       0.75000000 </v>
   <v>       0.75000000       0.75000000       0.00000000 </v>
   <v>       0.75000000       0.75000000       0.25000000 </v>
   <v>       0.75000000       0.75000000       0.50000000 </v>
   <v>       0.75000000       0.75000000       0.75000000 </v>
  </varray>
 </structure>
</modeling>
