       N       E                     dE             d eps       ncg     rms          rms(c)
DAV:   1     0.139359721550E+05    0.13936E+05   -0.54198E+05 12032   0.192E+03
DAV:   2     0.813936703238E+03   -0.13122E+05   -0.12709E+05 10336   0.644E+02
DAV:   3    -0.370406128162E+03   -0.11843E+04   -0.98002E+03 10640   0.201E+02
DAV:   4    -0.431087439817E+03   -0.60681E+02   -0.59324E+02 11064   0.461E+01
DAV:   5    -0.431982236539E+03   -0.89480E+00   -0.89428E+00 10936   0.519E+00    0.679E+01
DAV:   6    -0.395615045675E+03    0.36367E+02   -0.59512E+02 10836   0.699E+01    0.474E+01
DAV:   7    -0.368385276192E+03    0.27230E+02   -0.11064E+02 10756   0.305E+01    0.571E+00
DAV:   8    -0.368403495954E+03   -0.18220E-01   -0.10683E+00 11036   0.212E+00    0.286E+00
DAV:   9    -0.368283649083E+03    0.11985E+00   -0.19493E-01 11106   0.786E-01    0.770E-01
DAV:  10    -0.368287884161E+03   -0.42351E-02   -0.10432E-02 11692   0.184E-01    0.311E-01
DAV:  11    -0.368291180707E+03   -0.32965E-02   -0.53237E-03 10876   0.158E-01    0.101E-01
DAV:  12    -0.368291188070E+03   -0.73636E-05   -0.59141E-04 10900   0.558E-02    0.277E-02
DAV:  13    -0.368291192557E+03   -0.44872E-05   -0.25281E-05  9780   0.100E-02    0.200E-02
DAV:  14    -0.368291168326E+03    0.24231E-04   -0.87264E-06  9194   0.800E-03    0.569E-03
DAV:  15    -0.368291162042E+03    0.62839E-05   -0.10910E-06  5444   0.287E-03    0.222E-03
DAV:  16    -0.368291162059E+03   -0.16589E-07   -0.18553E-07  5420   0.995E-04
   1 F= -.36829116E+03 E0= -.36826060E+03  d E =-.916831E-01  mag=    43.7902
 Found     1 degrees of freedom:
       N       E                     dE             d eps       ncg     rms          rms(c)
DAV:   1    -0.367964364056E+03    0.32680E+00   -0.95974E+00 20500   0.296E+01    0.101E+00
DAV:   2    -0.368301340871E+03   -0.33698E+00   -0.31919E+00 16144   0.297E+00    0.294E+00
DAV:   3    -0.368291434950E+03    0.99059E-02   -0.14686E-01 19272   0.166E+00    0.132E+00
DAV:   4    -0.368296638150E+03   -0.52032E-02   -0.24712E-02 19040   0.112E+00    0.185E+00
DAV:   5    -0.368287954909E+03    0.86832E-02   -0.79950E-03 16808   0.812E-01    0.407E-01
DAV:   6    -0.368287773116E+03    0.18179E-03   -0.12082E-03 19080   0.190E-01    0.286E-01
DAV:   7    -0.368287613737E+03    0.15938E-03   -0.28087E-04 17184   0.111E-01    0.265E-01
DAV:   8    -0.368287474886E+03    0.13885E-03   -0.22244E-04 17240   0.127E-01    0.245E-01
DAV:   9    -0.368287552834E+03   -0.77948E-04   -0.48262E-04 17368   0.200E-01    0.367E-01
DAV:  10    -0.368287161425E+03    0.39141E-03   -0.53432E-04 20224   0.195E-01    0.162E-01
DAV:  11    -0.368287108922E+03    0.52502E-04   -0.17236E-04 20192   0.824E-02    0.493E-02
DAV:  12    -0.368287122030E+03   -0.13108E-04   -0.49099E-05 19872   0.490E-02    0.694E-02
DAV:  13    -0.368287108918E+03    0.13112E-04   -0.25886E-05 16728   0.413E-02    0.171E-02
DAV:  14    -0.368287112390E+03   -0.34725E-05   -0.55162E-06 16256   0.197E-02    0.373E-02
DAV:  15    -0.368287109222E+03    0.31678E-05   -0.33764E-06 11168   0.176E-02    0.858E-03
DAV:  16    -0.368287109630E+03   -0.40722E-06   -0.10146E-06  8064   0.831E-03
   2 F= -.36828711E+03 E0= -.36825657E+03  d E =-.916097E-01  mag=    43.7900
       N       E                     dE             d eps       ncg     rms          rms(c)
DAV:   1    -0.368143880115E+03    0.14323E+00   -0.46160E+00 20620   0.179E+01    0.366E-01
DAV:   2    -0.368290222557E+03   -0.14634E+00   -0.14234E+00 15840   0.183E+00    0.133E+00
DAV:   3    -0.368290197798E+03    0.24759E-04   -0.50552E-02 19344   0.783E-01    0.366E-01
DAV:   4    -0.368291417960E+03   -0.12202E-02   -0.46859E-03 19464   0.426E-01    0.693E-01
DAV:   5    -0.368290232787E+03    0.11852E-02   -0.13728E-03 16744   0.323E-01    0.151E-01
DAV:   6    -0.368290198873E+03    0.33914E-04   -0.18090E-04 18536   0.836E-02    0.890E-02
DAV:   7    -0.368290183423E+03    0.15450E-04   -0.59252E-05 17688   0.579E-02    0.954E-02
DAV:   8    -0.368290161013E+03    0.22411E-04   -0.60529E-05 17488   0.680E-02    0.808E-02
DAV:   9    -0.368290203851E+03   -0.42838E-04   -0.91695E-05 17872   0.892E-02    0.155E-01
DAV:  10    -0.368290139598E+03    0.64252E-04   -0.78519E-05 18112   0.785E-02    0.542E-02
DAV:  11    -0.368290133948E+03    0.56499E-05   -0.21038E-05 20136   0.285E-02    0.172E-02
DAV:  12    -0.368290135333E+03   -0.13853E-05   -0.56373E-06 15272   0.170E-02    0.231E-02
DAV:  13    -0.368290133809E+03    0.15244E-05   -0.26487E-06 10184   0.137E-02    0.518E-03
DAV:  14    -0.368290134064E+03   -0.25489E-06   -0.45757E-07  8052   0.567E-03
   3 F= -.36829013E+03 E0= -.36825959E+03  d E =-.916465E-01  mag=    43.7901
       N       E                     dE             d eps       ncg     rms          rms(c)
DAV:   1    -0.367999048530E+03    0.29109E+00   -0.84860E+00 20584   0.262E+01    0.940E-01
DAV:   2    -0.368300967181E+03   -0.30192E+00   -0.28676E+00 16082   0.275E+00    0.270E+00
DAV:   3    -0.368293894344E+03    0.70728E-02   -0.13221E-01 18714   0.156E+00    0.124E+00
DAV:   4    -0.368298138227E+03   -0.42439E-02   -0.21152E-02 19106   0.103E+00    0.169E+00
DAV:   5    -0.368290847001E+03    0.72912E-02   -0.67729E-03 16780   0.745E-01    0.369E-01
DAV:   6    -0.368290702435E+03    0.14457E-03   -0.10350E-03 19312   0.173E-01    0.261E-01
DAV:   7    -0.368290556421E+03    0.14601E-03   -0.24637E-04 17252   0.107E-01    0.243E-01
DAV:   8    -0.368290438473E+03    0.11795E-03   -0.22652E-04 17384   0.129E-01    0.230E-01
DAV:   9    -0.368290542684E+03   -0.10421E-03   -0.48585E-04 17456   0.201E-01    0.360E-01
DAV:  10    -0.368290178497E+03    0.36419E-03   -0.50008E-04 19520   0.189E-01    0.151E-01
DAV:  11    -0.368290132610E+03    0.45887E-04   -0.15323E-04 20240   0.773E-02    0.427E-02
DAV:  12    -0.368290144562E+03   -0.11952E-04   -0.41269E-05 19592   0.445E-02    0.631E-02
DAV:  13    -0.368290133680E+03    0.10882E-04   -0.21223E-05 16712   0.376E-02    0.157E-02
DAV:  14    -0.368290136310E+03   -0.26301E-05   -0.42610E-06 13744   0.178E-02    0.334E-02
DAV:  15    -0.368290133744E+03    0.25661E-05   -0.27334E-06 10088   0.158E-02    0.737E-03
DAV:  16    -0.368290134078E+03   -0.33420E-06   -0.86864E-07  8064   0.748E-03
   4 F= -.36829013E+03 E0= -.36825958E+03  d E =-.916478E-01  mag=    43.7901
       N       E                     dE             d eps       ncg     rms          rms(c)
DAV:   1    -0.368138985025E+03    0.15115E+00   -0.45867E+00 20522   0.180E+01    0.551E-01
DAV:   2    -0.368288025635E+03   -0.14904E+00   -0.14565E+00 15894   0.190E+00    0.140E+00
DAV:   3    -0.368288833689E+03   -0.80805E-03   -0.56366E-02 19048   0.969E-01    0.841E-01
DAV:   4    -0.368289559852E+03   -0.72616E-03   -0.81330E-03 18762   0.594E-01    0.926E-01
DAV:   5    -0.368287366132E+03    0.21937E-02   -0.20822E-03 16828   0.416E-01    0.206E-01
DAV:   6    -0.368287330160E+03    0.35972E-04   -0.31766E-04 19136   0.914E-02    0.162E-01
DAV:   7    -0.368287272609E+03    0.57551E-04   -0.68539E-05 17068   0.565E-02    0.146E-01
DAV:   8    -0.368287234107E+03    0.38502E-04   -0.58449E-05 17368   0.664E-02    0.138E-01
DAV:   9    -0.368287225094E+03    0.90132E-05   -0.13160E-04 17656   0.107E-01    0.185E-01
DAV:  10    -0.368287109697E+03    0.11540E-03   -0.12963E-04 19768   0.964E-02    0.389E-02
DAV:  11    -0.368287113128E+03   -0.34311E-05   -0.39505E-05 20280   0.334E-02    0.438E-02
DAV:  12    -0.368287112143E+03    0.98479E-06   -0.13361E-05 17232   0.265E-02    0.352E-02
DAV:  13    -0.368287109118E+03    0.30249E-05   -0.60128E-06 15920   0.195E-02    0.956E-03
DAV:  14    -0.368287109570E+03   -0.45195E-06   -0.10398E-06  8456   0.837E-03
   5 F= -.36828711E+03 E0= -.36825657E+03  d E =-.916093E-01  mag=    43.7900
