 vasp.5.4.1 05Feb16 (build Oct 12 2016 17:31:35) complex                        
  
 executed on           IFC91_ompi date 2020.09.07  12:03:23
 running on    1 total cores
 distrk:  each k-point on    1 cores,    1 groups
 distr:  one band on NCORES_PER_BAND=   1 cores,    1 groups


--------------------------------------------------------------------------------------------------------


 INCAR:
 POTCAR:   PAW_PBE Ni_pv 06Sep2000                
 POTCAR:   PAW_PBE Ni_pv 06Sep2000                
  local pseudopotential read in
  partial core-charges read in
  atomic valenz-charges read in
  non local Contribution for L=           1  read in
    real space projection operators read in
  non local Contribution for L=           1  read in
    real space projection operators read in
  non local Contribution for L=           2  read in
    real space projection operators read in
  non local Contribution for L=           2  read in
    real space projection operators read in
  non local Contribution for L=           0  read in
    real space projection operators read in
  non local Contribution for L=           0  read in
    real space projection operators read in
    PAW grid and wavefunctions read in
 
   number of l-projection  operators is LMAX  =           6
   number of lm-projection operators is LMMAX =          18
 
 Optimization of the real space projectors (new method)

 maximal supplied QI-value         = 18.90
 optimisation between [QCUT,QGAM] = [  9.83, 19.65] = [ 27.04,108.16] Ry 
 Optimized for a Real-space Cutoff    1.44 Angstroem

   l    n(q)    QCUT    max X(q) W(low)/X(q) W(high)/X(q)  e(spline) 
   1      8     9.827     3.231    0.38E-04    0.39E-04    0.57E-07
   1      8     9.827     4.241    0.57E-04    0.19E-03    0.30E-06
   2      7     9.827     3.566    0.29E-04    0.66E-04    0.48E-07
   2      7     9.827    20.429    0.17E-03    0.37E-03    0.30E-06
   0      8     9.827    19.799    0.18E-04    0.76E-05    0.78E-08
   0      8     9.827    52.283    0.39E-04    0.68E-04    0.44E-07
 PAW_PBE Ni_pv 06Sep2000                :
 energy of atom  1       EATOM=-3500.3496
 kinetic energy error for atom=    0.1419 (will be added to EATOM!!)
 
 
 POSCAR: Supercell by Yi Wang                    
  positions in direct lattice
  No initial velocities read in
 exchange correlation table for  LEXCH =        8
   RHO(1)=    0.500       N(1)  =     2000
   RHO(2)=  100.500       N(2)  =     4000
 


--------------------------------------------------------------------------------------------------------


 ion  position               nearest neighbor table
   1  0.000  0.000  0.000-   2 2.49   4 2.49   5 2.49   8 2.49  13 2.49  14 2.49  17 2.49  20 2.49
                            29 2.49  49 2.49  50 2.49  53 2.49
   2  0.000  0.000  0.250-   1 2.49   3 2.49   5 2.49   6 2.49  14 2.49  15 2.49  17 2.49  18 2.49
                            30 2.49  50 2.49  51 2.49  54 2.49
   3  0.000  0.000  0.500-   2 2.49   4 2.49   6 2.49   7 2.49  15 2.49  16 2.49  18 2.49  19 2.49
                            31 2.49  51 2.49  52 2.49  55 2.49
   4  0.000  0.000  0.750-   1 2.49   3 2.49   7 2.49   8 2.49  13 2.49  16 2.49  19 2.49  20 2.49
                            32 2.49  49 2.49  52 2.49  56 2.49
   5  0.000  0.250  0.000-   1 2.49   2 2.49   6 2.49   8 2.49   9 2.49  12 2.49  17 2.49  21 2.49
                            24 2.49  53 2.49  54 2.49  57 2.49
   6  0.000  0.250  0.250-   2 2.49   3 2.49   5 2.49   7 2.49   9 2.49  10 2.49  18 2.49  21 2.49
                            22 2.49  54 2.49  55 2.49  58 2.49
   7  0.000  0.250  0.500-   3 2.49   4 2.49   6 2.49   8 2.49  10 2.49  11 2.49  19 2.49  22 2.49
                            23 2.49  55 2.49  56 2.49  59 2.49
   8  0.000  0.250  0.750-   1 2.49   4 2.49   5 2.49   7 2.49  11 2.49  12 2.49  20 2.49  23 2.49
                            24 2.49  53 2.49  56 2.49  60 2.49
   9  0.000  0.500  0.000-   5 2.49   6 2.49  10 2.49  12 2.49  13 2.49  16 2.49  21 2.49  25 2.49
                            28 2.49  57 2.49  58 2.49  61 2.49
  10  0.000  0.500  0.250-   6 2.49   7 2.49   9 2.49  11 2.49  13 2.49  14 2.49  22 2.49  25 2.49
                            26 2.49  58 2.49  59 2.49  62 2.49
  11  0.000  0.500  0.500-   7 2.49   8 2.49  10 2.49  12 2.49  14 2.49  15 2.49  23 2.49  26 2.49
                            27 2.49  59 2.49  60 2.49  63 2.49
  12  0.000  0.500  0.750-   5 2.49   8 2.49   9 2.49  11 2.49  15 2.49  16 2.49  24 2.49  27 2.49
                            28 2.49  57 2.49  60 2.49  64 2.49
  13  0.000  0.750  0.000-   1 2.49   4 2.49   9 2.49  10 2.49  14 2.49  16 2.49  25 2.49  29 2.49
                            32 2.49  49 2.49  61 2.49  62 2.49
  14  0.000  0.750  0.250-   1 2.49   2 2.49  10 2.49  11 2.49  13 2.49  15 2.49  26 2.49  29 2.49
                            30 2.49  50 2.49  62 2.49  63 2.49
  15  0.000  0.750  0.500-   2 2.49   3 2.49  11 2.49  12 2.49  14 2.49  16 2.49  27 2.49  30 2.49
                            31 2.49  51 2.49  63 2.49  64 2.49
  16  0.000  0.750  0.750-   3 2.49   4 2.49   9 2.49  12 2.49  13 2.49  15 2.49  28 2.49  31 2.49
                            32 2.49  52 2.49  61 2.49  64 2.49
  17  0.250  0.000  0.000-   1 2.49   2 2.49   5 2.49  18 2.49  20 2.49  21 2.49  24 2.49  29 2.49
                            30 2.49  33 2.49  36 2.49  45 2.49
  18  0.250  0.000  0.250-   2 2.49   3 2.49   6 2.49  17 2.49  19 2.49  21 2.49  22 2.49  30 2.49
                            31 2.49  33 2.49  34 2.49  46 2.49
  19  0.250  0.000  0.500-   3 2.49   4 2.49   7 2.49  18 2.49  20 2.49  22 2.49  23 2.49  31 2.49
                            32 2.49  34 2.49  35 2.49  47 2.49
  20  0.250  0.000  0.750-   1 2.49   4 2.49   8 2.49  17 2.49  19 2.49  23 2.49  24 2.49  29 2.49
                            32 2.49  35 2.49  36 2.49  48 2.49
  21  0.250  0.250  0.000-   5 2.49   6 2.49   9 2.49  17 2.49  18 2.49  22 2.49  24 2.49  25 2.49
                            28 2.49  33 2.49  37 2.49  40 2.49
  22  0.250  0.250  0.250-   6 2.49   7 2.49  10 2.49  18 2.49  19 2.49  21 2.49  23 2.49  25 2.49
                            26 2.49  34 2.49  37 2.49  38 2.49
  23  0.250  0.250  0.500-   7 2.49   8 2.49  11 2.49  19 2.49  20 2.49  22 2.49  24 2.49  26 2.49
                            27 2.49  35 2.49  38 2.49  39 2.49
  24  0.250  0.250  0.750-   5 2.49   8 2.49  12 2.49  17 2.49  20 2.49  21 2.49  23 2.49  27 2.49
                            28 2.49  36 2.49  39 2.49  40 2.49
  25  0.250  0.500  0.000-   9 2.49  10 2.49  13 2.49  21 2.49  22 2.49  26 2.49  28 2.49  29 2.49
                            32 2.49  37 2.49  41 2.49  44 2.49
  26  0.250  0.500  0.250-  10 2.49  11 2.49  14 2.49  22 2.49  23 2.49  25 2.49  27 2.49  29 2.49
                            30 2.49  38 2.49  41 2.49  42 2.49
  27  0.250  0.500  0.500-  11 2.49  12 2.49  15 2.49  23 2.49  24 2.49  26 2.49  28 2.49  30 2.49
                            31 2.49  39 2.49  42 2.49  43 2.49
  28  0.250  0.500  0.750-   9 2.49  12 2.49  16 2.49  21 2.49  24 2.49  25 2.49  27 2.49  31 2.49
                            32 2.49  40 2.49  43 2.49  44 2.49
  29  0.250  0.750  0.000-   1 2.49  13 2.49  14 2.49  17 2.49  20 2.49  25 2.49  26 2.49  30 2.49
                            32 2.49  41 2.49  45 2.49  48 2.49
  30  0.250  0.750  0.250-   2 2.49  14 2.49  15 2.49  17 2.49  18 2.49  26 2.49  27 2.49  29 2.49
                            31 2.49  42 2.49  45 2.49  46 2.49
  31  0.250  0.750  0.500-   3 2.49  15 2.49  16 2.49  18 2.49  19 2.49  27 2.49  28 2.49  30 2.49
                            32 2.49  43 2.49  46 2.49  47 2.49
  32  0.250  0.750  0.750-   4 2.49  13 2.49  16 2.49  19 2.49  20 2.49  25 2.49  28 2.49  29 2.49
                            31 2.49  44 2.49  47 2.49  48 2.49
  33  0.500  0.000  0.000-  17 2.49  18 2.49  21 2.49  34 2.49  36 2.49  37 2.49  40 2.49  45 2.49
                            46 2.49  49 2.49  52 2.49  61 2.49
  34  0.500  0.000  0.250-  18 2.49  19 2.49  22 2.49  33 2.49  35 2.49  37 2.49  38 2.49  46 2.49
                            47 2.49  49 2.49  50 2.49  62 2.49
  35  0.500  0.000  0.500-  19 2.49  20 2.49  23 2.49  34 2.49  36 2.49  38 2.49  39 2.49  47 2.49
                            48 2.49  50 2.49  51 2.49  63 2.49
  36  0.500  0.000  0.750-  17 2.49  20 2.49  24 2.49  33 2.49  35 2.49  39 2.49  40 2.49  45 2.49
                            48 2.49  51 2.49  52 2.49  64 2.49
  37  0.500  0.250  0.000-  21 2.49  22 2.49  25 2.49  33 2.49  34 2.49  38 2.49  40 2.49  41 2.49
                            44 2.49  49 2.49  53 2.49  56 2.49
  38  0.500  0.250  0.250-  22 2.49  23 2.49  26 2.49  34 2.49  35 2.49  37 2.49  39 2.49  41 2.49
                            42 2.49  50 2.49  53 2.49  54 2.49
  39  0.500  0.250  0.500-  23 2.49  24 2.49  27 2.49  35 2.49  36 2.49  38 2.49  40 2.49  42 2.49
                            43 2.49  51 2.49  54 2.49  55 2.49
  40  0.500  0.250  0.750-  21 2.49  24 2.49  28 2.49  33 2.49  36 2.49  37 2.49  39 2.49  43 2.49
                            44 2.49  52 2.49  55 2.49  56 2.49
  41  0.500  0.500  0.000-  25 2.49  26 2.49  29 2.49  37 2.49  38 2.49  42 2.49  44 2.49  45 2.49
                            48 2.49  53 2.49  57 2.49  60 2.49
  42  0.500  0.500  0.250-  26 2.49  27 2.49  30 2.49  38 2.49  39 2.49  41 2.49  43 2.49  45 2.49
                            46 2.49  54 2.49  57 2.49  58 2.49
  43  0.500  0.500  0.500-  27 2.49  28 2.49  31 2.49  39 2.49  40 2.49  42 2.49  44 2.49  46 2.49
                            47 2.49  55 2.49  58 2.49  59 2.49
  44  0.500  0.500  0.750-  25 2.49  28 2.49  32 2.49  37 2.49  40 2.49  41 2.49  43 2.49  47 2.49
                            48 2.49  56 2.49  59 2.49  60 2.49
  45  0.500  0.750  0.000-  17 2.49  29 2.49  30 2.49  33 2.49  36 2.49  41 2.49  42 2.49  46 2.49
                            48 2.49  57 2.49  61 2.49  64 2.49
  46  0.500  0.750  0.250-  18 2.49  30 2.49  31 2.49  33 2.49  34 2.49  42 2.49  43 2.49  45 2.49
                            47 2.49  58 2.49  61 2.49  62 2.49
  47  0.500  0.750  0.500-  19 2.49  31 2.49  32 2.49  34 2.49  35 2.49  43 2.49  44 2.49  46 2.49
                            48 2.49  59 2.49  62 2.49  63 2.49
  48  0.500  0.750  0.750-  20 2.49  29 2.49  32 2.49  35 2.49  36 2.49  41 2.49  44 2.49  45 2.49
                            47 2.49  60 2.49  63 2.49  64 2.49
  49  0.750  0.000  0.000-   1 2.49   4 2.49  13 2.49  33 2.49  34 2.49  37 2.49  50 2.49  52 2.49
                            53 2.49  56 2.49  61 2.49  62 2.49
  50  0.750  0.000  0.250-   1 2.49   2 2.49  14 2.49  34 2.49  35 2.49  38 2.49  49 2.49  51 2.49
                            53 2.49  54 2.49  62 2.49  63 2.49
  51  0.750  0.000  0.500-   2 2.49   3 2.49  15 2.49  35 2.49  36 2.49  39 2.49  50 2.49  52 2.49
                            54 2.49  55 2.49  63 2.49  64 2.49
  52  0.750  0.000  0.750-   3 2.49   4 2.49  16 2.49  33 2.49  36 2.49  40 2.49  49 2.49  51 2.49
                            55 2.49  56 2.49  61 2.49  64 2.49
  53  0.750  0.250  0.000-   1 2.49   5 2.49   8 2.49  37 2.49  38 2.49  41 2.49  49 2.49  50 2.49
                            54 2.49  56 2.49  57 2.49  60 2.49
  54  0.750  0.250  0.250-   2 2.49   5 2.49   6 2.49  38 2.49  39 2.49  42 2.49  50 2.49  51 2.49
                            53 2.49  55 2.49  57 2.49  58 2.49
  55  0.750  0.250  0.500-   3 2.49   6 2.49   7 2.49  39 2.49  40 2.49  43 2.49  51 2.49  52 2.49
                            54 2.49  56 2.49  58 2.49  59 2.49
  56  0.750  0.250  0.750-   4 2.49   7 2.49   8 2.49  37 2.49  40 2.49  44 2.49  49 2.49  52 2.49
                            53 2.49  55 2.49  59 2.49  60 2.49
  57  0.750  0.500  0.000-   5 2.49   9 2.49  12 2.49  41 2.49  42 2.49  45 2.49  53 2.49  54 2.49
                            58 2.49  60 2.49  61 2.49  64 2.49
  58  0.750  0.500  0.250-   6 2.49   9 2.49  10 2.49  42 2.49  43 2.49  46 2.49  54 2.49  55 2.49
                            57 2.49  59 2.49  61 2.49  62 2.49
  59  0.750  0.500  0.500-   7 2.49  10 2.49  11 2.49  43 2.49  44 2.49  47 2.49  55 2.49  56 2.49
                            58 2.49  60 2.49  62 2.49  63 2.49
  60  0.750  0.500  0.750-   8 2.49  11 2.49  12 2.49  41 2.49  44 2.49  48 2.49  53 2.49  56 2.49
                            57 2.49  59 2.49  63 2.49  64 2.49
  61  0.750  0.750  0.000-   9 2.49  13 2.49  16 2.49  33 2.49  45 2.49  46 2.49  49 2.49  52 2.49
                            57 2.49  58 2.49  62 2.49  64 2.49
  62  0.750  0.750  0.250-  10 2.49  13 2.49  14 2.49  34 2.49  46 2.49  47 2.49  49 2.49  50 2.49
                            58 2.49  59 2.49  61 2.49  63 2.49
  63  0.750  0.750  0.500-  11 2.49  14 2.49  15 2.49  35 2.49  47 2.49  48 2.49  50 2.49  51 2.49
                            59 2.49  60 2.49  62 2.49  64 2.49
  64  0.750  0.750  0.750-  12 2.49  15 2.49  16 2.49  36 2.49  45 2.49  48 2.49  51 2.49  52 2.49
                            57 2.49  60 2.49  61 2.49  63 2.49
 
  LATTYP: Found a face centered cubic cell.
 ALAT       =    14.1000000000
  
  Lattice vectors:
  
 A1 = (   0.0000000000,   7.0500000000,   7.0500000000)
 A2 = (   7.0500000000,   0.0000000000,   7.0500000000)
 A3 = (   7.0500000000,   7.0500000000,   0.0000000000)


Analysis of symmetry for initial positions (statically):
=====================================================================
 Subroutine PRICEL returns following result:
 
  LATTYP: Found a face centered cubic cell.
 ALAT       =     3.5250000000
  
  Lattice vectors:
  
 A1 = (   0.0000000000,   1.7625000000,   1.7625000000)
 A2 = (   1.7625000000,   0.0000000000,   1.7625000000)
 A3 = (   1.7625000000,   1.7625000000,   0.0000000000)
 
  64 primitive cells build up your supercell.
 

 Routine SETGRP: Setting up the symmetry group for a 
 face centered cubic supercell.


 Subroutine GETGRP returns: Found 48 space group operations
 (whereof 48 operations were pure point group operations)
 out of a pool of 48 trial point group operations.


The static configuration has the point symmetry O_h .


Analysis of symmetry for dynamics (positions and initial velocities):
=====================================================================
 Subroutine PRICEL returns following result:
 
  LATTYP: Found a face centered cubic cell.
 ALAT       =     3.5250000000
  
  Lattice vectors:
  
 A1 = (   0.0000000000,   1.7625000000,   1.7625000000)
 A2 = (   1.7625000000,   0.0000000000,   1.7625000000)
 A3 = (   1.7625000000,   1.7625000000,   0.0000000000)
 
  64 primitive cells build up your supercell.
 

 Routine SETGRP: Setting up the symmetry group for a 
 face centered cubic supercell.


 Subroutine GETGRP returns: Found 48 space group operations
 (whereof 48 operations were pure point group operations)
 out of a pool of 48 trial point group operations.


The dynamic configuration has the point symmetry O_h .


Analysis of structural, dynamic, and magnetic symmetry:
=====================================================================
 Subroutine PRICEL returns following result:
 
  LATTYP: Found a face centered cubic cell.
 ALAT       =     3.5250000000
  
  Lattice vectors:
  
 A1 = (   0.0000000000,   1.7625000000,   1.7625000000)
 A2 = (   1.7625000000,   0.0000000000,   1.7625000000)
 A3 = (   1.7625000000,   1.7625000000,   0.0000000000)
 
  64 primitive cells build up your supercell.
 

 Routine SETGRP: Setting up the symmetry group for a 
 face centered cubic supercell.


 Subroutine GETGRP returns: Found 48 space group operations
 (whereof 48 operations were pure point group operations)
 out of a pool of 48 trial point group operations.


The magnetic configuration has the point symmetry O_h .


 Subroutine INISYM returns: Found 48 space group operations
 (whereof 48 operations are pure point group operations),
 and found    64 'primitive' translations

 
 
 KPOINTS: Zr 15x15x15                             

Automatic generation of k-mesh.
Space group operators:
 irot       det(A)        alpha          n_x          n_y          n_z        tau_x        tau_y        tau_z
    1     1.000000     0.000000     1.000000     0.000000     0.000000     0.000000     0.000000     0.000000
    2    -1.000000     0.000000     1.000000     0.000000     0.000000     0.000000     0.000000     0.000000
    3     1.000000   120.000000    -0.577350    -0.577350    -0.577350     0.000000     0.000000     0.000000
    4    -1.000000   120.000000    -0.577350    -0.577350    -0.577350     0.000000     0.000000     0.000000
    5     1.000000   120.000000     0.577350     0.577350     0.577350     0.000000     0.000000     0.000000
    6    -1.000000   120.000000     0.577350     0.577350     0.577350     0.000000     0.000000     0.000000
    7     1.000000    90.000000     0.000000     0.000000    -1.000000     0.000000     0.000000     0.000000
    8    -1.000000    90.000000     0.000000     0.000000    -1.000000     0.000000     0.000000     0.000000
    9     1.000000   180.000000     0.000000     0.707107     0.707107     0.000000     0.000000     0.000000
   10    -1.000000   180.000000     0.000000     0.707107     0.707107     0.000000     0.000000     0.000000
   11     1.000000    90.000000     0.000000     1.000000     0.000000     0.000000     0.000000     0.000000
   12    -1.000000    90.000000     0.000000     1.000000     0.000000     0.000000     0.000000     0.000000
   13     1.000000   180.000000     0.000000     0.000000     1.000000     0.000000     0.000000     0.000000
   14    -1.000000   180.000000     0.000000     0.000000     1.000000     0.000000     0.000000     0.000000
   15     1.000000   120.000000    -0.577350     0.577350     0.577350     0.000000     0.000000     0.000000
   16    -1.000000   120.000000    -0.577350     0.577350     0.577350     0.000000     0.000000     0.000000
   17     1.000000   120.000000    -0.577350     0.577350    -0.577350     0.000000     0.000000     0.000000
   18    -1.000000   120.000000    -0.577350     0.577350    -0.577350     0.000000     0.000000     0.000000
   19     1.000000    90.000000     0.000000     0.000000     1.000000     0.000000     0.000000     0.000000
   20    -1.000000    90.000000     0.000000     0.000000     1.000000     0.000000     0.000000     0.000000
   21     1.000000    90.000000    -1.000000     0.000000     0.000000     0.000000     0.000000     0.000000
   22    -1.000000    90.000000    -1.000000     0.000000     0.000000     0.000000     0.000000     0.000000
   23     1.000000   180.000000     0.707107     0.000000     0.707107     0.000000     0.000000     0.000000
   24    -1.000000   180.000000     0.707107     0.000000     0.707107     0.000000     0.000000     0.000000
   25     1.000000   120.000000     0.577350    -0.577350     0.577350     0.000000     0.000000     0.000000
   26    -1.000000   120.000000     0.577350    -0.577350     0.577350     0.000000     0.000000     0.000000
   27     1.000000   120.000000    -0.577350    -0.577350     0.577350     0.000000     0.000000     0.000000
   28    -1.000000   120.000000    -0.577350    -0.577350     0.577350     0.000000     0.000000     0.000000
   29     1.000000   180.000000     1.000000     0.000000     0.000000     0.000000     0.000000     0.000000
   30    -1.000000   180.000000     1.000000     0.000000     0.000000     0.000000     0.000000     0.000000
   31     1.000000    90.000000     0.000000    -1.000000     0.000000     0.000000     0.000000     0.000000
   32    -1.000000    90.000000     0.000000    -1.000000     0.000000     0.000000     0.000000     0.000000
   33     1.000000   180.000000     0.707107     0.707107     0.000000     0.000000     0.000000     0.000000
   34    -1.000000   180.000000     0.707107     0.707107     0.000000     0.000000     0.000000     0.000000
   35     1.000000    90.000000     1.000000     0.000000     0.000000     0.000000     0.000000     0.000000
   36    -1.000000    90.000000     1.000000     0.000000     0.000000     0.000000     0.000000     0.000000
   37     1.000000   120.000000     0.577350    -0.577350    -0.577350     0.000000     0.000000     0.000000
   38    -1.000000   120.000000     0.577350    -0.577350    -0.577350     0.000000     0.000000     0.000000
   39     1.000000   180.000000     0.000000     1.000000     0.000000     0.000000     0.000000     0.000000
   40    -1.000000   180.000000     0.000000     1.000000     0.000000     0.000000     0.000000     0.000000
   41     1.000000   120.000000     0.577350     0.577350    -0.577350     0.000000     0.000000     0.000000
   42    -1.000000   120.000000     0.577350     0.577350    -0.577350     0.000000     0.000000     0.000000
   43     1.000000   180.000000     0.000000    -0.707107     0.707107     0.000000     0.000000     0.000000
   44    -1.000000   180.000000     0.000000    -0.707107     0.707107     0.000000     0.000000     0.000000
   45     1.000000   180.000000     0.707107    -0.707107     0.000000     0.000000     0.000000     0.000000
   46    -1.000000   180.000000     0.707107    -0.707107     0.000000     0.000000     0.000000     0.000000
   47     1.000000   180.000000     0.707107     0.000000    -0.707107     0.000000     0.000000     0.000000
   48    -1.000000   180.000000     0.707107     0.000000    -0.707107     0.000000     0.000000     0.000000
 
 Subroutine IBZKPT returns following result:
 ===========================================
 
 Found      4 irreducible k-points:
 
 Following reciprocal coordinates:
            Coordinates               Weight
  0.000000  0.000000  0.000000      1.000000
  0.333333  0.000000  0.000000      8.000000
  0.333333  0.333333  0.000000      6.000000
 -0.333333  0.333333  0.000000     12.000000
 
 Following cartesian coordinates:
            Coordinates               Weight
  0.000000  0.000000  0.000000      1.000000
 -0.023641  0.023641  0.023641      8.000000
  0.000000  0.000000  0.047281      6.000000
  0.047281 -0.047281  0.000000     12.000000
 
 
 Subroutine IBZKPT_HF returns following result:
 ==============================================
 
 Found     27 k-points in 1st BZ
 the following     27 k-points will be used (e.g. in the exchange kernel)
 Following reciprocal coordinates:   # in IRBZ
  0.000000  0.000000  0.000000    0.03703704   1 t-inv F
  0.333333  0.000000  0.000000    0.03703704   2 t-inv F
  0.333333  0.333333  0.000000    0.03703704   3 t-inv F
 -0.333333  0.333333  0.000000    0.03703704   4 t-inv F
 -0.333333  0.000000  0.000000    0.03703704   2 t-inv F
  0.000000  0.333333  0.000000    0.03703704   2 t-inv F
  0.000000 -0.333333  0.000000    0.03703704   2 t-inv F
  0.000000  0.000000  0.333333    0.03703704   2 t-inv F
  0.000000  0.000000 -0.333333    0.03703704   2 t-inv F
  0.333333  0.333333  0.333333    0.03703704   2 t-inv F
 -0.333333 -0.333333 -0.333333    0.03703704   2 t-inv F
 -0.333333 -0.333333  0.000000    0.03703704   3 t-inv F
  0.000000  0.333333  0.333333    0.03703704   3 t-inv F
  0.000000 -0.333333 -0.333333    0.03703704   3 t-inv F
  0.333333  0.000000  0.333333    0.03703704   3 t-inv F
 -0.333333  0.000000 -0.333333    0.03703704   3 t-inv F
  0.333333 -0.333333  0.000000    0.03703704   4 t-inv F
  0.000000 -0.333333  0.333333    0.03703704   4 t-inv F
  0.000000  0.333333 -0.333333    0.03703704   4 t-inv F
  0.333333  0.000000 -0.333333    0.03703704   4 t-inv F
 -0.333333  0.000000  0.333333    0.03703704   4 t-inv F
  0.333333  0.333333  0.666667    0.03703704   4 t-inv F
 -0.333333 -0.333333 -0.666667    0.03703704   4 t-inv F
 -0.333333 -0.666667 -0.333333    0.03703704   4 t-inv F
  0.333333  0.666667  0.333333    0.03703704   4 t-inv F
 -0.666667 -0.333333 -0.333333    0.03703704   4 t-inv F
  0.666667  0.333333  0.333333    0.03703704   4 t-inv F


--------------------------------------------------------------------------------------------------------




 Dimension of arrays:
   k-points           NKPTS =      4   k-points in BZ     NKDIM =      4   number of bands    NBANDS=    646
   number of dos      NEDOS =    301   number of ions     NIONS =     64
   non local maximal  LDIM  =      6   non local SUM 2l+1 LMDIM =     18
   total plane-waves  NPLWV = 262144
   max r-space proj   IRMAX =   4722   max aug-charges    IRDMAX=   8457
   dimension x,y,z NGX =    64 NGY =   64 NGZ =   64
   dimension x,y,z NGXF=   128 NGYF=  128 NGZF=  128
   support grid    NGXF=   128 NGYF=  128 NGZF=  128
   ions per type =              64
 NGX,Y,Z   is equivalent  to a cutoff of  10.67, 10.67, 10.67 a.u.
 NGXF,Y,Z  is equivalent  to a cutoff of  21.34, 21.34, 21.34 a.u.


 I would recommend the setting:
   dimension x,y,z NGX =    62 NGY =   62 NGZ =   62
 SYSTEM =  phonon of Zr bcc - omiga                
 POSCAR =  Supercell by Yi Wang                    

 Startparameter for this run:
   NWRITE =      0    write-flag & timer
   PREC   = a         normal or accurate (medium, high low for compatibility)
   ISTART =      0    job   : 0-new  1-cont  2-samecut
   ICHARG =      2    charge: 1-file 2-atom 10-const
   ISPIN  =      2    spin polarized calculation?
   LNONCOLLINEAR =      F non collinear calculations
   LSORBIT =      F    spin-orbit coupling
   INIWAV =      1    electr: 0-lowe 1-rand  2-diag
   LASPH  =      F    aspherical Exc in radial PAW
   METAGGA=      F    non-selfconsistent MetaGGA calc.

 Electronic Relaxation 1
   ENCUT  =  367.9 eV  27.04 Ry    5.20 a.u.  15.59 15.59 15.59*2*pi/ulx,y,z
   ENINI  =  367.9     initial cutoff
   ENAUG  =  703.4 eV  augmentation charge cutoff
   NELM   =     60;   NELMIN=  2; NELMDL=  0     # of ELM steps 
   EDIFF  = 0.1E-05   stopping-criterion for ELM
   LREAL  =      T    real-space projection
   NLSPLINE    = F    spline interpolate recip. space projectors
   LCOMPAT=      F    compatible to vasp.4.4
   GGA_COMPAT  = T    GGA compatible to vasp.4.4-vasp.4.6
   LMAXPAW     = -100 max onsite density
   LMAXMIX     =    2 max onsite mixed and CHGCAR
   VOSKOWN=      0    Vosko Wilk Nusair interpolation
   ROPT   =   -0.00025
 Ionic relaxation
   EDIFFG = 0.1E-04   stopping-criterion for IOM
   NSW    =    805    number of steps for IOM
   NBLOCK =      1;   KBLOCK =      1    inner block; outer block 
   IBRION =      6    ionic relax: 0-MD 1-quasi-New 2-CG
   NFREE  =      4    steps in history (QN), initial steepest desc. (CG)
   ISIF   =      2    stress and relaxation
   IWAVPR =     11    prediction:  0-non 1-charg 2-wave 3-comb
   ISYM   =      2    0-nonsym 1-usesym 2-fastsym
   LCORR  =      T    Harris-Foulkes like correction to forces

   POTIM  = 0.5000    time-step for ionic-motion
   TEIN   =    0.0    initial temperature
   TEBEG  =    0.0;   TEEND  =   0.0 temperature during run
   SMASS  =  -3.00    Nose mass-parameter (am)
   estimated Nose-frequenzy (Omega)   =  0.10E-29 period in steps =****** mass=  -0.227E-26a.u.
   SCALEE = 1.0000    scale energy and forces
   NPACO  =    256;   APACO  = 16.0  distance and # of slots for P.C.
   PSTRESS=    0.0 pullay stress

  Mass of Ions in am
   POMASS =  58.69
  Ionic Valenz
   ZVAL   =  16.00
  Atomic Wigner-Seitz radii
   RWIGS  =  -1.00
  virtual crystal weights 
   VCA    =   1.00
   NELECT =    1024.0000    total number of electrons
   NUPDOWN=      -1.0000    fix difference up-down

 DOS related values:
   EMIN   =  10.00;   EMAX   =-10.00  energy-range for DOS
   EFERMI =   0.00
   ISMEAR =     1;   SIGMA  =   0.20  broadening in eV -4-tet -1-fermi 0-gaus

 Electronic relaxation 2 (details)
   IALGO  =     38    algorithm
   LDIAG  =      T    sub-space diagonalisation (order eigenvalues)
   LSUBROT=      F    optimize rotation matrix (better conditioning)
   TURBO    =      0    0=normal 1=particle mesh
   IRESTART =      0    0=no restart 2=restart with 2 vectors
   NREBOOT  =      0    no. of reboots
   NMIN     =      0    reboot dimension
   EREF     =   0.00    reference energy to select bands
   IMIX   =      4    mixing-type and parameters
     AMIX     =   0.40;   BMIX     =  1.00
     AMIX_MAG =   1.60;   BMIX_MAG =  1.00
     AMIN     =   0.10
     WC   =   100.;   INIMIX=   1;  MIXPRE=   1;  MAXMIX= -45

 Intra band minimization:
   WEIMIN = 0.0010     energy-eigenvalue tresh-hold
   EBREAK =  0.39E-09  absolut break condition
   DEPER  =   0.30     relativ break condition  

   TIME   =   0.40     timestep for ELM

  volume/ion in A,a.u.               =      10.95        73.89
  Fermi-wavevector in a.u.,A,eV,Ry     =   1.857701  3.510545 46.954402  3.451051
  Thomas-Fermi vector in A             =   2.906309
 
 Write flags
   LWAVE  =      T    write WAVECAR
   LCHARG =      T    write CHGCAR
   LVTOT  =      F    write LOCPOT, total local potential
   LVHAR  =      F    write LOCPOT, Hartree potential only
   LELF   =      F    write electronic localiz. function (ELF)
   LORBIT =      0    0 simple, 1 ext, 2 COOP (PROOUT)


 Dipole corrections
   LMONO  =      F    monopole corrections only (constant potential shift)
   LDIPOL =      F    correct potential (dipole corrections)
   IDIPOL =      0    1-x, 2-y, 3-z, 4-all directions 
   EPSILON=  1.0000000 bulk dielectric constant

 Exchange correlation treatment:
   GGA     =    --    GGA type
   LEXCH   =     8    internal setting for exchange type
   VOSKOWN=      0    Vosko Wilk Nusair interpolation
   LHFCALC =     F    Hartree Fock is set to
   LHFONE  =     F    Hartree Fock one center treatment
   AEXX    =    0.0000 exact exchange contribution

 Linear response parameters
   LEPSILON=     F    determine dielectric tensor
   LRPA    =     F    only Hartree local field effects (RPA)
   LNABLA  =     F    use nabla operator in PAW spheres
   LVEL    =     F    velocity operator in full k-point grid
   LINTERFAST=   F  fast interpolation
   KINTER  =     0    interpolate to denser k-point grid
   CSHIFT  =0.1000    complex shift for real part using Kramers Kronig
   OMEGAMAX=  -1.0    maximum frequency
   DEG_THRESHOLD= 0.2000000E-02 threshold for treating states as degnerate
   RTIME   =    0.100 relaxation time in fs

 Orbital magnetization related:
   ORBITALMAG=     F  switch on orbital magnetization
   LCHIMAG   =     F  perturbation theory with respect to B field
   DQ        =  0.001000  dq finite difference perturbation B field



--------------------------------------------------------------------------------------------------------


 finite differences with symmetry
 charge density and potential will be updated during run
 spin polarized calculation
 Variant of blocked Davidson
 Davidson routine will perform the subspace rotation
 perform sub-space diagonalisation
    after iterative eigenvector-optimisation
 modified Broyden-mixing scheme, WC =      100.0
 initial mixing is a Kerker type mixing with AMIX =  0.4000 and BMIX =      1.0000
 Hartree-type preconditioning will be used
 using additional bands          134
 real space projection scheme for non local part
 use partial core corrections
 calculate Harris-corrections to forces 
   (improved forces if not selfconsistent)
 use gradient corrections 
 use of overlap-Matrix (Vanderbilt PP)
 Methfessel and Paxton  Order N= 1 SIGMA  =   0.20


--------------------------------------------------------------------------------------------------------


  energy-cutoff  :      367.94
  volume of cell :      700.81
      direct lattice vectors                 reciprocal lattice vectors
     0.000000000  7.050000000  7.050000000    -0.070921986  0.070921986  0.070921986
     7.050000000  0.000000000  7.050000000     0.070921986 -0.070921986  0.070921986
     7.050000000  7.050000000  0.000000000     0.070921986  0.070921986 -0.070921986

  length of vectors
     9.970205615  9.970205615  9.970205615     0.122840483  0.122840483  0.122840483


 
 k-points in units of 2pi/SCALE and weight: Zr 15x15x15                             
   0.00000000  0.00000000  0.00000000       0.037
  -0.02364066  0.02364066  0.02364066       0.296
   0.00000000  0.00000000  0.04728132       0.222
   0.04728132 -0.04728132  0.00000000       0.444
 
 k-points in reciprocal lattice and weights: Zr 15x15x15                             
   0.00000000  0.00000000  0.00000000       0.037
   0.33333333  0.00000000  0.00000000       0.296
   0.33333333  0.33333333  0.00000000       0.222
  -0.33333333  0.33333333  0.00000000       0.444
 
 position of ions in fractional coordinates (direct lattice) 
   0.00000000  0.00000000  0.00000000
   0.00000000  0.00000000  0.25000000
   0.00000000  0.00000000  0.50000000
   0.00000000  0.00000000  0.75000000
   0.00000000  0.25000000  0.00000000
   0.00000000  0.25000000  0.25000000
   0.00000000  0.25000000  0.50000000
   0.00000000  0.25000000  0.75000000
   0.00000000  0.50000000  0.00000000
   0.00000000  0.50000000  0.25000000
   0.00000000  0.50000000  0.50000000
   0.00000000  0.50000000  0.75000000
   0.00000000  0.75000000  0.00000000
   0.00000000  0.75000000  0.25000000
   0.00000000  0.75000000  0.50000000
   0.00000000  0.75000000  0.75000000
   0.25000000  0.00000000  0.00000000
   0.25000000  0.00000000  0.25000000
   0.25000000  0.00000000  0.50000000
   0.25000000  0.00000000  0.75000000
   0.25000000  0.25000000  0.00000000
   0.25000000  0.25000000  0.25000000
   0.25000000  0.25000000  0.50000000
   0.25000000  0.25000000  0.75000000
   0.25000000  0.50000000  0.00000000
   0.25000000  0.50000000  0.25000000
   0.25000000  0.50000000  0.50000000
   0.25000000  0.50000000  0.75000000
   0.25000000  0.75000000  0.00000000
   0.25000000  0.75000000  0.25000000
   0.25000000  0.75000000  0.50000000
   0.25000000  0.75000000  0.75000000
   0.50000000  0.00000000  0.00000000
   0.50000000  0.00000000  0.25000000
   0.50000000  0.00000000  0.50000000
   0.50000000  0.00000000  0.75000000
   0.50000000  0.25000000  0.00000000
   0.50000000  0.25000000  0.25000000
   0.50000000  0.25000000  0.50000000
   0.50000000  0.25000000  0.75000000
   0.50000000  0.50000000  0.00000000
   0.50000000  0.50000000  0.25000000
   0.50000000  0.50000000  0.50000000
   0.50000000  0.50000000  0.75000000
   0.50000000  0.75000000  0.00000000
   0.50000000  0.75000000  0.25000000
   0.50000000  0.75000000  0.50000000
   0.50000000  0.75000000  0.75000000
   0.75000000  0.00000000  0.00000000
   0.75000000  0.00000000  0.25000000
   0.75000000  0.00000000  0.50000000
   0.75000000  0.00000000  0.75000000
   0.75000000  0.25000000  0.00000000
   0.75000000  0.25000000  0.25000000
   0.75000000  0.25000000  0.50000000
   0.75000000  0.25000000  0.75000000
   0.75000000  0.50000000  0.00000000
   0.75000000  0.50000000  0.25000000
   0.75000000  0.50000000  0.50000000
   0.75000000  0.50000000  0.75000000
   0.75000000  0.75000000  0.00000000
   0.75000000  0.75000000  0.25000000
   0.75000000  0.75000000  0.50000000
   0.75000000  0.75000000  0.75000000
 
 position of ions in cartesian coordinates  (Angst):
   0.00000000  0.00000000  0.00000000
   1.76250000  1.76250000  0.00000000
   3.52500000  3.52500000  0.00000000
   5.28750000  5.28750000  0.00000000
   1.76250000  0.00000000  1.76250000
   3.52500000  1.76250000  1.76250000
   5.28750000  3.52500000  1.76250000
   7.05000000  5.28750000  1.76250000
   3.52500000  0.00000000  3.52500000
   5.28750000  1.76250000  3.52500000
   7.05000000  3.52500000  3.52500000
   8.81250000  5.28750000  3.52500000
   5.28750000  0.00000000  5.28750000
   7.05000000  1.76250000  5.28750000
   8.81250000  3.52500000  5.28750000
  10.57500000  5.28750000  5.28750000
   0.00000000  1.76250000  1.76250000
   1.76250000  3.52500000  1.76250000
   3.52500000  5.28750000  1.76250000
   5.28750000  7.05000000  1.76250000
   1.76250000  1.76250000  3.52500000
   3.52500000  3.52500000  3.52500000
   5.28750000  5.28750000  3.52500000
   7.05000000  7.05000000  3.52500000
   3.52500000  1.76250000  5.28750000
   5.28750000  3.52500000  5.28750000
   7.05000000  5.28750000  5.28750000
   8.81250000  7.05000000  5.28750000
   5.28750000  1.76250000  7.05000000
   7.05000000  3.52500000  7.05000000
   8.81250000  5.28750000  7.05000000
  10.57500000  7.05000000  7.05000000
   0.00000000  3.52500000  3.52500000
   1.76250000  5.28750000  3.52500000
   3.52500000  7.05000000  3.52500000
   5.28750000  8.81250000  3.52500000
   1.76250000  3.52500000  5.28750000
   3.52500000  5.28750000  5.28750000
   5.28750000  7.05000000  5.28750000
   7.05000000  8.81250000  5.28750000
   3.52500000  3.52500000  7.05000000
   5.28750000  5.28750000  7.05000000
   7.05000000  7.05000000  7.05000000
   8.81250000  8.81250000  7.05000000
   5.28750000  3.52500000  8.81250000
   7.05000000  5.28750000  8.81250000
   8.81250000  7.05000000  8.81250000
  10.57500000  8.81250000  8.81250000
   0.00000000  5.28750000  5.28750000
   1.76250000  7.05000000  5.28750000
   3.52500000  8.81250000  5.28750000
   5.28750000 10.57500000  5.28750000
   1.76250000  5.28750000  7.05000000
   3.52500000  7.05000000  7.05000000
   5.28750000  8.81250000  7.05000000
   7.05000000 10.57500000  7.05000000
   3.52500000  5.28750000  8.81250000
   5.28750000  7.05000000  8.81250000
   7.05000000  8.81250000  8.81250000
   8.81250000 10.57500000  8.81250000
   5.28750000  5.28750000 10.57500000
   7.05000000  7.05000000 10.57500000
   8.81250000  8.81250000 10.57500000
  10.57500000 10.57500000 10.57500000
 


--------------------------------------------------------------------------------------------------------


 k-point  1 :   0.0000 0.0000 0.0000  plane waves:   11191
 k-point  2 :   0.3333 0.0000 0.0000  plane waves:   11261
 k-point  3 :   0.3333 0.3333 0.0000  plane waves:   11226
 k-point  4 :  -0.3333 0.3333 0.0000  plane waves:   11218

 maximum and minimum number of plane-waves per node :     11261    11191

 maximum number of plane-waves:     11261
 maximum index in each direction: 
   IXMAX=   15   IYMAX=   15   IZMAX=   15
   IXMIN=  -15   IYMIN=  -15   IZMIN=  -15

 NGX is ok and might be reduce to  62
 NGY is ok and might be reduce to  62
 NGZ is ok and might be reduce to  62

 serial   3D FFT for wavefunctions
 parallel 3D FFT for charge:
    minimum data exchange during FFTs selected (reduces bandwidth)


 total amount of memory used by VASP on root node  1355907. kBytes
========================================================================

   base      :      30000. kBytes
   nonlr-proj:      51103. kBytes
   fftplans  :      72476. kBytes
   grid      :     173932. kBytes
   one-center:       1990. kBytes
   wavefun   :    1026406. kBytes
 
     INWAV:  cpu time    0.0000: real time    0.0000
 Broyden mixing: mesh for mixing (old mesh)
   NGX = 31   NGY = 31   NGZ = 31
  (NGX  =128   NGY  =128   NGZ  =128)
  gives a total of  29791 points

 initial charge density was supplied:
 charge density of overlapping atoms calculated
 number of electron    1024.0000000 magnetization      64.0000000
 keeping initial charge density in first step


--------------------------------------------------------------------------------------------------------


 Maximum index for non-local projection operator         4537
 Maximum index for augmentation-charges         8007 (set IRDMAX)


--------------------------------------------------------------------------------------------------------


 First call to EWALD:  gamma=   0.200
 Maximum number of real-space cells 3x 3x 3
 Maximum number of reciprocal cells 3x 3x 3

 FEWALD executed in parallel
    FEWALD:  cpu time    0.0220: real time    0.0220


----------------------------------------- Iteration    1(   1)  ---------------------------------------


    POTLOK:  cpu time    2.1377: real time    2.1358
    SETDIJ:  cpu time    0.3779: real time    0.3778
     EDDAV:  cpu time  433.0982: real time  432.7475
       DOS:  cpu time    0.0120: real time    0.0121
    --------------------------------------------
      LOOP:  cpu time  435.6268: real time  435.2757

 eigenvalue-minimisations  : 12032
 total energy-change (2. order) : 0.1393597E+05  (-0.5419832E+05)
 number of electron    1024.0000000 magnetization      64.0000000
 augmentation part     1024.0000000 magnetization      64.0000000

 Free energy of the ion-electron system (eV)
  ---------------------------------------------------
  alpha Z        PSCENC =      9846.09864404
  Ewald energy   TEWEN  =   -153431.04596326
  -Hartree energ DENC   =    -61842.66455428
  -exchange      EXHF   =         0.00000000
  -V(xc)+E(xc)   XCENC  =      5718.00711084
  PAW double counting   =    172361.15642774  -181272.45834873
  entropy T*S    EENTRO =        -0.00991936
  eigenvalues    EBANDS =     -1456.40267262
  atomic energy  EATOM  =    224013.29143063
  Solvation  Ediel_sol  =         0.00000000
  ---------------------------------------------------
  free energy    TOTEN  =     13935.97215500 eV

  energy without entropy =    13935.98207436  energy(sigma->0) =    13935.97546145


--------------------------------------------------------------------------------------------------------




----------------------------------------- Iteration    1(   2)  ---------------------------------------


     EDDAV:  cpu time  385.4434: real time  385.1238
       DOS:  cpu time    0.0130: real time    0.0135
    --------------------------------------------
      LOOP:  cpu time  385.4574: real time  385.1378

 eigenvalue-minimisations  : 10336
 total energy-change (2. order) :-0.1312204E+05  (-0.1270856E+05)
 number of electron    1024.0000000 magnetization      64.0000000
 augmentation part     1024.0000000 magnetization      64.0000000

 Free energy of the ion-electron system (eV)
  ---------------------------------------------------
  alpha Z        PSCENC =      9846.09864404
  Ewald energy   TEWEN  =   -153431.04596326
  -Hartree energ DENC   =    -61842.66455428
  -exchange      EXHF   =         0.00000000
  -V(xc)+E(xc)   XCENC  =      5718.00711084
  PAW double counting   =    172361.15642774  -181272.45834873
  entropy T*S    EENTRO =         0.00263350
  eigenvalues    EBANDS =    -14578.45067724
  atomic energy  EATOM  =    224013.29143063
  Solvation  Ediel_sol  =         0.00000000
  ---------------------------------------------------
  free energy    TOTEN  =       813.93670324 eV

  energy without entropy =      813.93406974  energy(sigma->0) =      813.93582540


--------------------------------------------------------------------------------------------------------




----------------------------------------- Iteration    1(   3)  ---------------------------------------


     EDDAV:  cpu time  393.8441: real time  393.5187
       DOS:  cpu time    0.0150: real time    0.0147
    --------------------------------------------
      LOOP:  cpu time  393.8601: real time  393.5338

 eigenvalue-minimisations  : 10640
 total energy-change (2. order) :-0.1184343E+04  (-0.9800187E+03)
 number of electron    1024.0000000 magnetization      64.0000000
 augmentation part     1024.0000000 magnetization      64.0000000

 Free energy of the ion-electron system (eV)
  ---------------------------------------------------
  alpha Z        PSCENC =      9846.09864404
  Ewald energy   TEWEN  =   -153431.04596326
  -Hartree energ DENC   =    -61842.66455428
  -exchange      EXHF   =         0.00000000
  -V(xc)+E(xc)   XCENC  =      5718.00711084
  PAW double counting   =    172361.15642774  -181272.45834873
  entropy T*S    EENTRO =         0.15364293
  eigenvalues    EBANDS =    -15762.94451808
  atomic energy  EATOM  =    224013.29143063
  Solvation  Ediel_sol  =         0.00000000
  ---------------------------------------------------
  free energy    TOTEN  =      -370.40612816 eV

  energy without entropy =     -370.55977109  energy(sigma->0) =     -370.45734247


--------------------------------------------------------------------------------------------------------




----------------------------------------- Iteration    1(   4)  ---------------------------------------


     EDDAV:  cpu time  405.9783: real time  405.6417
       DOS:  cpu time    0.0150: real time    0.0148
    --------------------------------------------
      LOOP:  cpu time  405.9933: real time  405.6569

 eigenvalue-minimisations  : 11064
 total energy-change (2. order) :-0.6068131E+02  (-0.5932384E+02)
 number of electron    1024.0000000 magnetization      64.0000000
 augmentation part     1024.0000000 magnetization      64.0000000

 Free energy of the ion-electron system (eV)
  ---------------------------------------------------
  alpha Z        PSCENC =      9846.09864404
  Ewald energy   TEWEN  =   -153431.04596326
  -Hartree energ DENC   =    -61842.66455428
  -exchange      EXHF   =         0.00000000
  -V(xc)+E(xc)   XCENC  =      5718.00711084
  PAW double counting   =    172361.15642774  -181272.45834873
  entropy T*S    EENTRO =         0.16366481
  eigenvalues    EBANDS =    -15823.63585161
  atomic energy  EATOM  =    224013.29143063
  Solvation  Ediel_sol  =         0.00000000
  ---------------------------------------------------
  free energy    TOTEN  =      -431.08743982 eV

  energy without entropy =     -431.25110463  energy(sigma->0) =     -431.14199475


--------------------------------------------------------------------------------------------------------




----------------------------------------- Iteration    1(   5)  ---------------------------------------


     EDDAV:  cpu time  402.6138: real time  402.2807
       DOS:  cpu time    0.0150: real time    0.0145
    CHARGE:  cpu time   16.7115: real time   16.6974
    MIXING:  cpu time    0.0470: real time    0.0467
    --------------------------------------------
      LOOP:  cpu time  419.3872: real time  419.0398

 eigenvalue-minimisations  : 10936
 total energy-change (2. order) :-0.8947967E+00  (-0.8942753E+00)
 number of electron    1023.9998147 magnetization      57.8174455
 augmentation part      573.3525646 magnetization      46.2702743

 Broyden mixing:
  rms(total) = 0.67937E+01    rms(broyden)= 0.67824E+01
  rms(prec ) = 0.92375E+01
  weight for this iteration     100.00

 Free energy of the ion-electron system (eV)
  ---------------------------------------------------
  alpha Z        PSCENC =      9846.09864404
  Ewald energy   TEWEN  =   -153431.04596326
  -Hartree energ DENC   =    -61842.66455428
  -exchange      EXHF   =         0.00000000
  -V(xc)+E(xc)   XCENC  =      5718.00711084
  PAW double counting   =    172361.15642774  -181272.45834873
  entropy T*S    EENTRO =         0.16369200
  eigenvalues    EBANDS =    -15824.53067552
  atomic energy  EATOM  =    224013.29143063
  Solvation  Ediel_sol  =         0.00000000
  ---------------------------------------------------
  free energy    TOTEN  =      -431.98223654 eV

  energy without entropy =     -432.14592854  energy(sigma->0) =     -432.03680054


--------------------------------------------------------------------------------------------------------




----------------------------------------- Iteration    1(   6)  ---------------------------------------


    POTLOK:  cpu time    2.0837: real time    2.0815
    SETDIJ:  cpu time    0.3779: real time    0.3781
     EDDAV:  cpu time  400.3711: real time  400.0394
       DOS:  cpu time    0.0150: real time    0.0145
    CHARGE:  cpu time   16.9684: real time   16.9554
    MIXING:  cpu time    0.0490: real time    0.0492
    --------------------------------------------
      LOOP:  cpu time  419.8652: real time  419.5186

 eigenvalue-minimisations  : 10836
 total energy-change (2. order) : 0.3636719E+02  (-0.5951217E+02)
 number of electron    1023.9997978 magnetization      51.3713661
 augmentation part      628.6106244 magnetization      45.6424435

 Broyden mixing:
  rms(total) = 0.47351E+01    rms(broyden)= 0.47337E+01
  rms(prec ) = 0.59609E+01
  weight for this iteration     100.00

 eigenvalues of (default mixing * dielectric matrix)
  average eigenvalue GAMMA=   0.5719
  0.5719

 Free energy of the ion-electron system (eV)
  ---------------------------------------------------
  alpha Z        PSCENC =      9846.09864404
  Ewald energy   TEWEN  =   -153431.04596326
  -Hartree energ DENC   =    -58650.88187884
  -exchange      EXHF   =         0.00000000
  -V(xc)+E(xc)   XCENC  =      5595.43113212
  PAW double counting   =    168090.29167446  -176688.72769494
  entropy T*S    EENTRO =        -0.34261948
  eigenvalues    EBANDS =    -19169.72977040
  atomic energy  EATOM  =    224013.29143063
  Solvation  Ediel_sol  =         0.00000000
  ---------------------------------------------------
  free energy    TOTEN  =      -395.61504567 eV

  energy without entropy =     -395.27242620  energy(sigma->0) =     -395.50083918


--------------------------------------------------------------------------------------------------------




----------------------------------------- Iteration    1(   7)  ---------------------------------------


    POTLOK:  cpu time    2.0817: real time    2.0800
    SETDIJ:  cpu time    0.3749: real time    0.3739
     EDDAV:  cpu time  398.1745: real time  397.8449
       DOS:  cpu time    0.0140: real time    0.0145
    CHARGE:  cpu time   16.8444: real time   16.8309
    MIXING:  cpu time    0.0520: real time    0.0510
    --------------------------------------------
      LOOP:  cpu time  417.5425: real time  417.1959

 eigenvalue-minimisations  : 10756
 total energy-change (2. order) : 0.2722977E+02  (-0.1106417E+02)
 number of electron    1023.9998047 magnetization      46.0715935
 augmentation part      605.8494026 magnetization      37.9271475

 Broyden mixing:
  rms(total) = 0.57118E+00    rms(broyden)= 0.56916E+00
  rms(prec ) = 0.69387E+00
  weight for this iteration     100.00

 eigenvalues of (default mixing * dielectric matrix)
  average eigenvalue GAMMA=   0.7794
  0.9667  0.5921

 Free energy of the ion-electron system (eV)
  ---------------------------------------------------
  alpha Z        PSCENC =      9846.09864404
  Ewald energy   TEWEN  =   -153431.04596326
  -Hartree energ DENC   =    -59762.05877730
  -exchange      EXHF   =         0.00000000
  -V(xc)+E(xc)   XCENC  =      5637.37875013
  PAW double counting   =    170625.13366762  -179499.88120847
  entropy T*S    EENTRO =        -0.05843496
  eigenvalues    EBANDS =    -17797.24338461
  atomic energy  EATOM  =    224013.29143063
  Solvation  Ediel_sol  =         0.00000000
  ---------------------------------------------------
  free energy    TOTEN  =      -368.38527619 eV

  energy without entropy =     -368.32684123  energy(sigma->0) =     -368.36579787


--------------------------------------------------------------------------------------------------------




----------------------------------------- Iteration    1(   8)  ---------------------------------------


    POTLOK:  cpu time    2.0737: real time    2.0727
    SETDIJ:  cpu time    0.3759: real time    0.3759
     EDDAV:  cpu time  406.2712: real time  405.9346
       DOS:  cpu time    0.0150: real time    0.0144
    CHARGE:  cpu time   16.8604: real time   16.8463
    MIXING:  cpu time    0.0520: real time    0.0524
    --------------------------------------------
      LOOP:  cpu time  425.6493: real time  425.2971

 eigenvalue-minimisations  : 11036
 total energy-change (2. order) :-0.1821976E-01  (-0.1068295E+00)
 number of electron    1023.9998048 magnetization      43.0071023
 augmentation part      605.6050491 magnetization      36.0866576

 Broyden mixing:
  rms(total) = 0.28560E+00    rms(broyden)= 0.28544E+00
  rms(prec ) = 0.38150E+00
  weight for this iteration     100.00

 eigenvalues of (default mixing * dielectric matrix)
  average eigenvalue GAMMA=   1.1343
  0.6075  0.8855  1.9099

 Free energy of the ion-electron system (eV)
  ---------------------------------------------------
  alpha Z        PSCENC =      9846.09864404
  Ewald energy   TEWEN  =   -153431.04596326
  -Hartree energ DENC   =    -59632.36266961
  -exchange      EXHF   =         0.00000000
  -V(xc)+E(xc)   XCENC  =      5633.31678535
  PAW double counting   =    171329.75725179  -180301.91038858
  entropy T*S    EENTRO =        -0.07513735
  eigenvalues    EBANDS =    -17825.47344895
  atomic energy  EATOM  =    224013.29143063
  Solvation  Ediel_sol  =         0.00000000
  ---------------------------------------------------
  free energy    TOTEN  =      -368.40349595 eV

  energy without entropy =     -368.32835860  energy(sigma->0) =     -368.37845017


--------------------------------------------------------------------------------------------------------




----------------------------------------- Iteration    1(   9)  ---------------------------------------


    POTLOK:  cpu time    2.0747: real time    2.0731
    SETDIJ:  cpu time    0.3749: real time    0.3750
     EDDAV:  cpu time  408.6839: real time  408.3464
       DOS:  cpu time    0.0160: real time    0.0146
    CHARGE:  cpu time   16.8984: real time   16.8846
    MIXING:  cpu time    0.0550: real time    0.0553
    --------------------------------------------
      LOOP:  cpu time  428.1039: real time  427.7497

 eigenvalue-minimisations  : 11106
 total energy-change (2. order) : 0.1198469E+00  (-0.1949282E-01)
 number of electron    1023.9998046 magnetization      43.2259375
 augmentation part      606.3115845 magnetization      37.1089765

 Broyden mixing:
  rms(total) = 0.76989E-01    rms(broyden)= 0.76933E-01
  rms(prec ) = 0.79904E-01
  weight for this iteration     100.00

 eigenvalues of (default mixing * dielectric matrix)
  average eigenvalue GAMMA=   1.0969
  2.1844  0.9614  0.6210  0.6210

 Free energy of the ion-electron system (eV)
  ---------------------------------------------------
  alpha Z        PSCENC =      9846.09864404
  Ewald energy   TEWEN  =   -153431.04596326
  -Hartree energ DENC   =    -59489.58687647
  -exchange      EXHF   =         0.00000000
  -V(xc)+E(xc)   XCENC  =      5628.63311003
  PAW double counting   =    171891.77895853  -180934.66209422
  entropy T*S    EENTRO =        -0.09289527
  eigenvalues    EBANDS =    -17892.69796310
  atomic energy  EATOM  =    224013.29143063
  Solvation  Ediel_sol  =         0.00000000
  ---------------------------------------------------
  free energy    TOTEN  =      -368.28364908 eV

  energy without entropy =     -368.19075381  energy(sigma->0) =     -368.25268399


--------------------------------------------------------------------------------------------------------




----------------------------------------- Iteration    1(  10)  ---------------------------------------


    POTLOK:  cpu time    2.0747: real time    2.0724
    SETDIJ:  cpu time    0.3789: real time    0.3778
     EDDAV:  cpu time  424.9864: real time  424.6355
       DOS:  cpu time    0.0150: real time    0.0149
    CHARGE:  cpu time   16.8984: real time   16.8843
    MIXING:  cpu time    0.0570: real time    0.0579
    --------------------------------------------
      LOOP:  cpu time  444.4124: real time  444.0435

 eigenvalue-minimisations  : 11692
 total energy-change (2. order) :-0.4235079E-02  (-0.1043237E-02)
 number of electron    1023.9998046 magnetization      43.8152471
 augmentation part      606.3074202 magnetization      37.6388667

 Broyden mixing:
  rms(total) = 0.31051E-01    rms(broyden)= 0.31005E-01
  rms(prec ) = 0.32265E-01
  weight for this iteration     100.00

 eigenvalues of (default mixing * dielectric matrix)
  average eigenvalue GAMMA=   1.2555
  2.3202  1.7254  1.0028  0.6147  0.6147

 Free energy of the ion-electron system (eV)
  ---------------------------------------------------
  alpha Z        PSCENC =      9846.09864404
  Ewald energy   TEWEN  =   -153431.04596326
  -Hartree energ DENC   =    -59480.69302087
  -exchange      EXHF   =         0.00000000
  -V(xc)+E(xc)   XCENC  =      5628.38776282
  PAW double counting   =    171990.34611328  -181039.64737278
  entropy T*S    EENTRO =        -0.09170738
  eigenvalues    EBANDS =    -17894.93377062
  atomic energy  EATOM  =    224013.29143063
  Solvation  Ediel_sol  =         0.00000000
  ---------------------------------------------------
  free energy    TOTEN  =      -368.28788416 eV

  energy without entropy =     -368.19617678  energy(sigma->0) =     -368.25731503


--------------------------------------------------------------------------------------------------------




----------------------------------------- Iteration    1(  11)  ---------------------------------------


    POTLOK:  cpu time    2.0777: real time    2.0757
    SETDIJ:  cpu time    0.3769: real time    0.3772
     EDDAV:  cpu time  398.9214: real time  398.5914
       DOS:  cpu time    0.0150: real time    0.0149
    CHARGE:  cpu time   18.5822: real time   18.5666
    MIXING:  cpu time    0.0600: real time    0.0605
    --------------------------------------------
      LOOP:  cpu time  420.0331: real time  419.6869

 eigenvalue-minimisations  : 10876
 total energy-change (2. order) :-0.3296545E-02  (-0.5323709E-03)
 number of electron    1023.9998046 magnetization      43.8120483
 augmentation part      606.2352651 magnetization      37.4948618

 Broyden mixing:
  rms(total) = 0.10066E-01    rms(broyden)= 0.10027E-01
  rms(prec ) = 0.12918E-01
  weight for this iteration     100.00

 eigenvalues of (default mixing * dielectric matrix)
  average eigenvalue GAMMA=   1.1937
  2.4092  1.7624  1.0195  0.7271  0.6410  0.6031

 Free energy of the ion-electron system (eV)
  ---------------------------------------------------
  alpha Z        PSCENC =      9846.09864404
  Ewald energy   TEWEN  =   -153431.04596326
  -Hartree energ DENC   =    -59481.53884211
  -exchange      EXHF   =         0.00000000
  -V(xc)+E(xc)   XCENC  =      5628.41935456
  PAW double counting   =    172095.72625938  -181147.37484868
  entropy T*S    EENTRO =        -0.08974714
  eigenvalues    EBANDS =    -17891.77746813
  atomic energy  EATOM  =    224013.29143063
  Solvation  Ediel_sol  =         0.00000000
  ---------------------------------------------------
  free energy    TOTEN  =      -368.29118071 eV

  energy without entropy =     -368.20143357  energy(sigma->0) =     -368.26126499


--------------------------------------------------------------------------------------------------------




----------------------------------------- Iteration    1(  12)  ---------------------------------------


    POTLOK:  cpu time    2.0757: real time    2.0742
    SETDIJ:  cpu time    0.3789: real time    0.3774
     EDDAV:  cpu time  399.7402: real time  399.4103
       DOS:  cpu time    0.0150: real time    0.0149
    CHARGE:  cpu time   18.5822: real time   18.5664
    MIXING:  cpu time    0.0640: real time    0.0633
    --------------------------------------------
      LOOP:  cpu time  420.8570: real time  420.5071

 eigenvalue-minimisations  : 10900
 total energy-change (2. order) :-0.7363647E-05  (-0.5914123E-04)
 number of electron    1023.9998046 magnetization      43.7971977
 augmentation part      606.2798903 magnetization      37.4800709

 Broyden mixing:
  rms(total) = 0.27749E-02    rms(broyden)= 0.27576E-02
  rms(prec ) = 0.29270E-02
  weight for this iteration     100.00

 eigenvalues of (default mixing * dielectric matrix)
  average eigenvalue GAMMA=   1.1926
  2.4573  1.7008  1.3090  0.9309  0.6068  0.6282  0.7150

 Free energy of the ion-electron system (eV)
  ---------------------------------------------------
  alpha Z        PSCENC =      9846.09864404
  Ewald energy   TEWEN  =   -153431.04596326
  -Hartree energ DENC   =    -59478.51080618
  -exchange      EXHF   =         0.00000000
  -V(xc)+E(xc)   XCENC  =      5628.30403981
  PAW double counting   =    172112.17988963  -181163.83540558
  entropy T*S    EENTRO =        -0.09129266
  eigenvalues    EBANDS =    -17894.68172450
  atomic energy  EATOM  =    224013.29143063
  Solvation  Ediel_sol  =         0.00000000
  ---------------------------------------------------
  free energy    TOTEN  =      -368.29118807 eV

  energy without entropy =     -368.19989541  energy(sigma->0) =     -368.26075718


--------------------------------------------------------------------------------------------------------




----------------------------------------- Iteration    1(  13)  ---------------------------------------


    POTLOK:  cpu time    2.0827: real time    2.0807
    SETDIJ:  cpu time    0.3769: real time    0.3775
     EDDAV:  cpu time  368.4830: real time  368.1779
       DOS:  cpu time    0.0150: real time    0.0146
    CHARGE:  cpu time   18.5852: real time   18.5703
    MIXING:  cpu time    0.0680: real time    0.0664
    --------------------------------------------
      LOOP:  cpu time  389.6108: real time  389.2880

 eigenvalue-minimisations  :  9780
 total energy-change (2. order) :-0.4487170E-05  (-0.2528111E-05)
 number of electron    1023.9998046 magnetization      43.7875745
 augmentation part      606.2876262 magnetization      37.4707726

 Broyden mixing:
  rms(total) = 0.19997E-02    rms(broyden)= 0.19992E-02
  rms(prec ) = 0.26634E-02
  weight for this iteration     100.00

 eigenvalues of (default mixing * dielectric matrix)
  average eigenvalue GAMMA=   1.2526
  2.4769  1.8611  1.8611  1.0291  0.6149  0.6149  0.7814  0.7814

 Free energy of the ion-electron system (eV)
  ---------------------------------------------------
  alpha Z        PSCENC =      9846.09864404
  Ewald energy   TEWEN  =   -153431.04596326
  -Hartree energ DENC   =    -59478.34636537
  -exchange      EXHF   =         0.00000000
  -V(xc)+E(xc)   XCENC  =      5628.29415933
  PAW double counting   =    172120.91479814  -181172.26516563
  entropy T*S    EENTRO =        -0.09170676
  eigenvalues    EBANDS =    -17895.14102366
  atomic energy  EATOM  =    224013.29143063
  Solvation  Ediel_sol  =         0.00000000
  ---------------------------------------------------
  free energy    TOTEN  =      -368.29119256 eV

  energy without entropy =     -368.19948580  energy(sigma->0) =     -368.26062364


--------------------------------------------------------------------------------------------------------




----------------------------------------- Iteration    1(  14)  ---------------------------------------


    POTLOK:  cpu time    2.0797: real time    2.0780
    SETDIJ:  cpu time    0.3779: real time    0.3776
     EDDAV:  cpu time  351.4966: real time  351.2068
       DOS:  cpu time    0.0150: real time    0.0146
    CHARGE:  cpu time   18.5892: real time   18.5727
    MIXING:  cpu time    0.0690: real time    0.0695
    --------------------------------------------
      LOOP:  cpu time  372.6274: real time  372.3198

 eigenvalue-minimisations  :  9194
 total energy-change (2. order) : 0.2423109E-04  (-0.8726419E-06)
 number of electron    1023.9998046 magnetization      43.7874390
 augmentation part      606.2822373 magnetization      37.4709977

 Broyden mixing:
  rms(total) = 0.56871E-03    rms(broyden)= 0.56777E-03
  rms(prec ) = 0.73638E-03
  weight for this iteration     100.00

 eigenvalues of (default mixing * dielectric matrix)
  average eigenvalue GAMMA=   1.2738
  2.5864  2.3982  1.8019  1.1138  0.8443  0.8443  0.6104  0.6324  0.6324

 Free energy of the ion-electron system (eV)
  ---------------------------------------------------
  alpha Z        PSCENC =      9846.09864404
  Ewald energy   TEWEN  =   -153431.04596326
  -Hartree energ DENC   =    -59479.05039555
  -exchange      EXHF   =         0.00000000
  -V(xc)+E(xc)   XCENC  =      5628.31877471
  PAW double counting   =    172128.98200395  -181180.01316861
  entropy T*S    EENTRO =        -0.09180667
  eigenvalues    EBANDS =    -17894.78068757
  atomic energy  EATOM  =    224013.29143063
  Solvation  Ediel_sol  =         0.00000000
  ---------------------------------------------------
  free energy    TOTEN  =      -368.29116833 eV

  energy without entropy =     -368.19936166  energy(sigma->0) =     -368.26056610


--------------------------------------------------------------------------------------------------------




----------------------------------------- Iteration    1(  15)  ---------------------------------------


    POTLOK:  cpu time    2.0797: real time    2.0783
    SETDIJ:  cpu time    0.3779: real time    0.3777
     EDDAV:  cpu time  244.9528: real time  244.7505
       DOS:  cpu time    0.0150: real time    0.0141
    CHARGE:  cpu time   18.5892: real time   18.5731
    MIXING:  cpu time    0.0730: real time    0.0729
    --------------------------------------------
      LOOP:  cpu time  266.0885: real time  265.8673

 eigenvalue-minimisations  :  5444
 total energy-change (2. order) : 0.6283895E-05  (-0.1091035E-06)
 number of electron    1023.9998046 magnetization      43.7893545
 augmentation part      606.2800846 magnetization      37.4728786

 Broyden mixing:
  rms(total) = 0.22250E-03    rms(broyden)= 0.22186E-03
  rms(prec ) = 0.22294E-03
  weight for this iteration     100.00

 eigenvalues of (default mixing * dielectric matrix)
  average eigenvalue GAMMA=   1.2475
  2.6442  2.4324  1.7224  1.2596  0.9133  0.9133  0.7326  0.6139  0.6139  0.6296

 Free energy of the ion-electron system (eV)
  ---------------------------------------------------
  alpha Z        PSCENC =      9846.09864404
  Ewald energy   TEWEN  =   -153431.04596326
  -Hartree energ DENC   =    -59479.26976737
  -exchange      EXHF   =         0.00000000
  -V(xc)+E(xc)   XCENC  =      5628.32702596
  PAW double counting   =    172130.71924114  -181181.67102064
  entropy T*S    EENTRO =        -0.09173349
  eigenvalues    EBANDS =    -17894.64901905
  atomic energy  EATOM  =    224013.29143063
  Solvation  Ediel_sol  =         0.00000000
  ---------------------------------------------------
  free energy    TOTEN  =      -368.29116204 eV

  energy without entropy =     -368.19942855  energy(sigma->0) =     -368.26058421


--------------------------------------------------------------------------------------------------------




----------------------------------------- Iteration    1(  16)  ---------------------------------------


    POTLOK:  cpu time    2.0827: real time    2.0805
    SETDIJ:  cpu time    0.3769: real time    0.3776
     EDDAV:  cpu time  245.0947: real time  244.8918
       DOS:  cpu time    0.0160: real time    0.0149
    --------------------------------------------
      LOOP:  cpu time  247.5704: real time  247.3662

 eigenvalue-minimisations  :  5420
 total energy-change (2. order) :-0.1658918E-07  (-0.1855282E-07)
 number of electron    1023.9998046 magnetization      43.7893545
 augmentation part      606.2800846 magnetization      37.4728786

 Free energy of the ion-electron system (eV)
  ---------------------------------------------------
  alpha Z        PSCENC =      9846.09864404
  Ewald energy   TEWEN  =   -153431.04596326
  -Hartree energ DENC   =    -59479.27790031
  -exchange      EXHF   =         0.00000000
  -V(xc)+E(xc)   XCENC  =      5628.32777039
  PAW double counting   =    172130.60439196  -181181.55052293
  entropy T*S    EENTRO =        -0.09168311
  eigenvalues    EBANDS =    -17894.64732947
  atomic energy  EATOM  =    224013.29143063
  Solvation  Ediel_sol  =         0.00000000
  ---------------------------------------------------
  free energy    TOTEN  =      -368.29116206 eV

  energy without entropy =     -368.19947895  energy(sigma->0) =     -368.26060102


--------------------------------------------------------------------------------------------------------




 average (electrostatic) potential at core
  the test charge radii are     0.8614
  (the norm of the test charge is              1.0000)
       1 -79.4661       2 -79.4661       3 -79.4661       4 -79.4661       5 -79.4661
       6 -79.4661       7 -79.4661       8 -79.4661       9 -79.4661      10 -79.4661
      11 -79.4661      12 -79.4661      13 -79.4661      14 -79.4661      15 -79.4661
      16 -79.4661      17 -79.4661      18 -79.4661      19 -79.4661      20 -79.4661
      21 -79.4661      22 -79.4661      23 -79.4661      24 -79.4661      25 -79.4661
      26 -79.4661      27 -79.4661      28 -79.4661      29 -79.4661      30 -79.4661
      31 -79.4661      32 -79.4661      33 -79.4661      34 -79.4661      35 -79.4661
      36 -79.4661      37 -79.4661      38 -79.4661      39 -79.4661      40 -79.4661
      41 -79.4661      42 -79.4661      43 -79.4661      44 -79.4661      45 -79.4661
      46 -79.4661      47 -79.4661      48 -79.4661      49 -79.4661      50 -79.4661
      51 -79.4661      52 -79.4661      53 -79.4661      54 -79.4661      55 -79.4661
      56 -79.4661      57 -79.4661      58 -79.4661      59 -79.4661      60 -79.4661
      61 -79.4661      62 -79.4661      63 -79.4661      64 -79.4661
 
 
 
 E-fermi :   7.7967     XC(G=0): -13.7400     alpha+bet :-14.7865


 spin component 1

 k-point     1 :       0.0000    0.0000    0.0000
  band No.  band energies     occupation 
      1     -56.2805      1.00000
      2     -56.2805      1.00000
      3     -56.2805      1.00000
      4     -56.2805      1.00000
      5     -56.2778      1.00000
      6     -56.2778      1.00000
      7     -56.2778      1.00000
      8     -56.2434      1.00000
      9     -56.2434      1.00000
     10     -56.2434      1.00000
     11     -56.2434      1.00000
     12     -56.2434      1.00000
     13     -56.2434      1.00000
     14     -56.2433      1.00000
     15     -56.2433      1.00000
     16     -56.2433      1.00000
     17     -56.2433      1.00000
     18     -56.2433      1.00000
     19     -56.2433      1.00000
     20     -56.2433      1.00000
     21     -56.2433      1.00000
     22     -56.2433      1.00000
     23     -56.2433      1.00000
     24     -56.2433      1.00000
     25     -56.2433      1.00000
     26     -56.2433      1.00000
     27     -56.2433      1.00000
     28     -56.2433      1.00000
     29     -56.2433      1.00000
     30     -56.2433      1.00000
     31     -56.2433      1.00000
     32     -56.2132      1.00000
     33     -56.2132      1.00000
     34     -56.2132      1.00000
     35     -56.2132      1.00000
     36     -56.2132      1.00000
     37     -56.2132      1.00000
     38     -56.2131      1.00000
     39     -56.2131      1.00000
     40     -56.2131      1.00000
     41     -56.2131      1.00000
     42     -56.2131      1.00000
     43     -56.2131      1.00000
     44     -56.2076      1.00000
     45     -56.2076      1.00000
     46     -56.2076      1.00000
     47     -56.2076      1.00000
     48     -56.2076      1.00000
     49     -56.2076      1.00000
     50     -56.2076      1.00000
     51     -56.2076      1.00000
     52     -56.2076      1.00000
     53     -56.2076      1.00000
     54     -56.2076      1.00000
     55     -56.2076      1.00000
     56     -56.1762      1.00000
     57     -56.1762      1.00000
     58     -56.1762      1.00000
     59     -56.1762      1.00000
     60     -56.1762      1.00000
     61     -56.1762      1.00000
     62     -56.1653      1.00000
     63     -56.1653      1.00000
     64     -56.1653      1.00000
     65     -56.1653      1.00000
     66     -56.1653      1.00000
     67     -56.1653      1.00000
     68     -56.1653      1.00000
     69     -56.1653      1.00000
     70     -56.1602      1.00000
     71     -56.1602      1.00000
     72     -56.1602      1.00000
     73     -56.1602      1.00000
     74     -56.1602      1.00000
     75     -56.1602      1.00000
     76     -56.1602      1.00000
     77     -56.1602      1.00000
     78     -56.1602      1.00000
     79     -56.1602      1.00000
     80     -56.1602      1.00000
     81     -56.1602      1.00000
     82     -56.1602      1.00000
     83     -56.1602      1.00000
     84     -56.1602      1.00000
     85     -56.1602      1.00000
     86     -56.1602      1.00000
     87     -56.1602      1.00000
     88     -56.1602      1.00000
     89     -56.1602      1.00000
     90     -56.1602      1.00000
     91     -56.1602      1.00000
     92     -56.1602      1.00000
     93     -56.1602      1.00000
     94     -56.1579      1.00000
     95     -56.1579      1.00000
     96     -56.1579      1.00000
     97     -56.1579      1.00000
     98     -56.1579      1.00000
     99     -56.1579      1.00000
    100     -56.1579      1.00000
    101     -56.1579      1.00000
    102     -56.1579      1.00000
    103     -56.1579      1.00000
    104     -56.1579      1.00000
    105     -56.1579      1.00000
    106     -56.1575      1.00000
    107     -56.1575      1.00000
    108     -56.1575      1.00000
    109     -56.1575      1.00000
    110     -56.1575      1.00000
    111     -56.1575      1.00000
    112     -56.1497      1.00000
    113     -56.1497      1.00000
    114     -56.1497      1.00000
    115     -56.1497      1.00000
    116     -56.1497      1.00000
    117     -56.1497      1.00000
    118     -56.1268      1.00000
    119     -56.1268      1.00000
    120     -56.1268      1.00000
    121     -56.1268      1.00000
    122     -56.1268      1.00000
    123     -56.1268      1.00000
    124     -56.1268      1.00000
    125     -56.1268      1.00000
    126     -56.1268      1.00000
    127     -56.1268      1.00000
    128     -56.1268      1.00000
    129     -56.1268      1.00000
    130     -56.1268      1.00000
    131     -56.1268      1.00000
    132     -56.1268      1.00000
    133     -56.1268      1.00000
    134     -56.1268      1.00000
    135     -56.1268      1.00000
    136     -56.1268      1.00000
    137     -56.1268      1.00000
    138     -56.1268      1.00000
    139     -56.1268      1.00000
    140     -56.1268      1.00000
    141     -56.1268      1.00000
    142     -56.1140      1.00000
    143     -56.1140      1.00000
    144     -56.1140      1.00000
    145     -56.1140      1.00000
    146     -56.1140      1.00000
    147     -56.1140      1.00000
    148     -56.1140      1.00000
    149     -56.1140      1.00000
    150     -56.1140      1.00000
    151     -56.1140      1.00000
    152     -56.1140      1.00000
    153     -56.1140      1.00000
    154     -56.0981      1.00000
    155     -56.0981      1.00000
    156     -56.0981      1.00000
    157     -56.0981      1.00000
    158     -56.0981      1.00000
    159     -56.0981      1.00000
    160     -56.0981      1.00000
    161     -56.0981      1.00000
    162     -56.0981      1.00000
    163     -56.0981      1.00000
    164     -56.0981      1.00000
    165     -56.0981      1.00000
    166     -56.0968      1.00000
    167     -56.0968      1.00000
    168     -56.0968      1.00000
    169     -56.0968      1.00000
    170     -56.0968      1.00000
    171     -56.0968      1.00000
    172     -56.0968      1.00000
    173     -56.0968      1.00000
    174     -56.0874      1.00000
    175     -56.0874      1.00000
    176     -56.0874      1.00000
    177     -56.0874      1.00000
    178     -56.0874      1.00000
    179     -56.0874      1.00000
    180     -56.0874      1.00000
    181     -56.0874      1.00000
    182     -56.0874      1.00000
    183     -56.0874      1.00000
    184     -56.0874      1.00000
    185     -56.0874      1.00000
    186     -56.0874      1.00000
    187     -56.0874      1.00000
    188     -56.0874      1.00000
    189     -56.0874      1.00000
    190     -56.0771      1.00000
    191     -56.0771      1.00000
    192     -56.0771      1.00000
    193      -1.2226      1.00000
    194       0.9987      1.00000
    195       0.9987      1.00000
    196       0.9987      1.00000
    197       0.9987      1.00000
    198       0.9987      1.00000
    199       0.9987      1.00000
    200       0.9987      1.00000
    201       0.9987      1.00000
    202       1.6523      1.00000
    203       1.6523      1.00000
    204       1.6523      1.00000
    205       1.6523      1.00000
    206       1.6523      1.00000
    207       1.6523      1.00000
    208       2.9413      1.00000
    209       2.9413      1.00000
    210       2.9413      1.00000
    211       2.9413      1.00000
    212       3.1207      1.00000
    213       3.1207      1.00000
    214       3.1207      1.00000
    215       3.5406      1.00000
    216       3.5406      1.00000
    217       3.5406      1.00000
    218       3.5406      1.00000
    219       3.5406      1.00000
    220       3.5406      1.00000
    221       3.5406      1.00000
    222       3.5406      1.00000
    223       3.5406      1.00000
    224       3.5406      1.00000
    225       3.5406      1.00000
    226       3.5406      1.00000
    227       3.5810      1.00000
    228       3.5810      1.00000
    229       3.5810      1.00000
    230       3.6809      1.00000
    231       3.6809      1.00000
    232       3.6809      1.00000
    233       3.6809      1.00000
    234       3.6809      1.00000
    235       3.6809      1.00000
    236       3.6810      1.00000
    237       3.6810      1.00000
    238       3.6810      1.00000
    239       3.6810      1.00000
    240       3.6810      1.00000
    241       3.6810      1.00000
    242       3.6810      1.00000
    243       3.6810      1.00000
    244       3.6810      1.00000
    245       3.6810      1.00000
    246       3.6810      1.00000
    247       3.6810      1.00000
    248       3.6810      1.00000
    249       3.6810      1.00000
    250       3.6810      1.00000
    251       3.6810      1.00000
    252       3.6810      1.00000
    253       3.6810      1.00000
    254       4.0014      1.00000
    255       4.0014      1.00000
    256       4.0014      1.00000
    257       4.0014      1.00000
    258       4.0014      1.00000
    259       4.0014      1.00000
    260       4.3210      1.00000
    261       4.3210      1.00000
    262       4.3210      1.00000
    263       4.3210      1.00000
    264       4.3210      1.00000
    265       4.3210      1.00000
    266       4.3210      1.00000
    267       4.3210      1.00000
    268       4.3210      1.00000
    269       4.3210      1.00000
    270       4.3210      1.00000
    271       4.3210      1.00000
    272       4.3211      1.00000
    273       4.3211      1.00000
    274       4.3211      1.00000
    275       4.3211      1.00000
    276       4.3211      1.00000
    277       4.3211      1.00000
    278       4.3211      1.00000
    279       4.3211      1.00000
    280       4.3211      1.00000
    281       4.3211      1.00000
    282       4.3211      1.00000
    283       4.3211      1.00000
    284       4.4214      1.00000
    285       4.4214      1.00000
    286       4.4214      1.00000
    287       4.4214      1.00000
    288       4.4214      1.00000
    289       4.4214      1.00000
    290       4.7000      1.00000
    291       4.7000      1.00000
    292       4.7000      1.00000
    293       4.7000      1.00000
    294       4.7000      1.00000
    295       4.7000      1.00000
    296       4.7000      1.00000
    297       4.7000      1.00000
    298       4.7000      1.00000
    299       4.7000      1.00000
    300       4.7000      1.00000
    301       4.7000      1.00000
    302       4.7025      1.00000
    303       4.7025      1.00000
    304       4.7025      1.00000
    305       4.7025      1.00000
    306       4.7025      1.00000
    307       4.7025      1.00000
    308       4.7025      1.00000
    309       4.7025      1.00000
    310       4.7025      1.00000
    311       4.7025      1.00000
    312       4.7025      1.00000
    313       4.7025      1.00000
    314       5.0073      1.00000
    315       5.0073      1.00000
    316       5.0073      1.00000
    317       5.0073      1.00000
    318       5.0073      1.00000
    319       5.0073      1.00000
    320       5.0073      1.00000
    321       5.0073      1.00000
    322       5.0073      1.00000
    323       5.0073      1.00000
    324       5.0073      1.00000
    325       5.0073      1.00000
    326       5.0179      1.00000
    327       5.0179      1.00000
[...]
      7.050000  3.525000  3.525000    -0.004347    0.002075    0.124907  
      8.812500  5.287500  3.525000    -0.004347    0.002075    0.124907  
      5.287500  0.000000  5.287500    -0.004347    0.002075    0.124907  
      7.050000  1.762500  5.287500    -0.004347    0.002075    0.124907  
      8.812500  3.525000  5.287500    -0.004347    0.002075    0.124907  
     10.575000  5.287500  5.287500    -0.004347    0.002075    0.124907  
      0.000000  1.762500  1.762500    -0.004347    0.002075    0.124907  
      1.762500  3.525000  1.762500    -0.004347    0.002075    0.124907  
      3.525000  5.287500  1.762500    -0.004347    0.002075    0.124907  
      5.287500  7.050000  1.762500    -0.004347    0.002075    0.124907  
      1.762500  1.762500  3.525000    -0.004347    0.002075    0.124907  
      3.525000  3.525000  3.525000    -0.004347    0.002075    0.124907  
      5.287500  5.287500  3.525000    -0.004347    0.002075    0.124907  
      7.050000  7.050000  3.525000    -0.004347    0.002075    0.124907  
      3.525000  1.762500  5.287500    -0.004347    0.002075    0.124907  
      5.287500  3.525000  5.287500    -0.004347    0.002075    0.124907  
      7.050000  5.287500  5.287500    -0.004347    0.002075    0.124907  
      8.812500  7.050000  5.287500    -0.004347    0.002075    0.124907  
      5.287500  1.762500  7.050000    -0.004347    0.002075    0.124907  
      7.050000  3.525000  7.050000    -0.004347    0.002075    0.124907  
      8.812500  5.287500  7.050000    -0.004347    0.002075    0.124907  
     10.575000  7.050000  7.050000    -0.004347    0.002075    0.124907  
      0.000000  3.525000  3.525000    -0.004347    0.002075    0.124907  
      1.762500  5.287500  3.525000    -0.004347    0.002075    0.124907  
      3.525000  7.050000  3.525000    -0.004347    0.002075    0.124907  
      5.287500  8.812500  3.525000    -0.004347    0.002075    0.124907  
      1.762500  3.525000  5.287500    -0.004347    0.002075    0.124907  
      3.525000  5.287500  5.287500    -0.004347    0.002075    0.124907  
      5.287500  7.050000  5.287500    -0.004347    0.002075    0.124907  
      7.050000  8.812500  5.287500    -0.004347    0.002075    0.124907  
      3.525000  3.525000  7.050000    -0.004347    0.002075    0.124907  
      5.287500  5.287500  7.050000    -0.004347    0.002075    0.124907  
      7.050000  7.050000  7.050000    -0.004347    0.002075    0.124907  
      8.812500  8.812500  7.050000    -0.004347    0.002075    0.124907  
      5.287500  3.525000  8.812500    -0.004347    0.002075    0.124907  
      7.050000  5.287500  8.812500    -0.004347    0.002075    0.124907  
      8.812500  7.050000  8.812500    -0.004347    0.002075    0.124907  
     10.575000  8.812500  8.812500    -0.004347    0.002075    0.124907  
      0.000000  5.287500  5.287500    -0.004347    0.002075    0.124907  
      1.762500  7.050000  5.287500    -0.004347    0.002075    0.124907  
      3.525000  8.812500  5.287500    -0.004347    0.002075    0.124907  
      5.287500 10.575000  5.287500    -0.004347    0.002075    0.124907  
      1.762500  5.287500  7.050000    -0.004347    0.002075    0.124907  
      3.525000  7.050000  7.050000    -0.004347    0.002075    0.124907  
      5.287500  8.812500  7.050000    -0.004347    0.002075    0.124907  
      7.050000 10.575000  7.050000    -0.004347    0.002075    0.124907  
      3.525000  5.287500  8.812500    -0.004347    0.002075    0.124907  
      5.287500  7.050000  8.812500    -0.004347    0.002075    0.124907  
      7.050000  8.812500  8.812500    -0.004347    0.002075    0.124907  
      8.812500 10.575000  8.812500    -0.004347    0.002075    0.124907  
      5.287500  5.287500 10.575000    -0.004347    0.002075    0.124907  
      7.050000  7.050000 10.575000    -0.004347    0.002075    0.124907  
      8.812500  8.812500 10.575000    -0.004347    0.002075    0.124907  
     10.575000 10.575000 10.575000    -0.004347    0.002075    0.124907  
 
 192 f/i=    0.000000 THz     0.000003 2PiTHz    0.000016 cm-1     0.000002 meV
             X         Y         Z           dx          dy          dz
      0.000000  0.000000  0.000000     0.096333    0.079630    0.002030  
      1.762500  1.762500  0.000000     0.096333    0.079630    0.002030  
      3.525000  3.525000  0.000000     0.096333    0.079630    0.002030  
      5.287500  5.287500  0.000000     0.096333    0.079630    0.002030  
      1.762500  0.000000  1.762500     0.096333    0.079630    0.002030  
      3.525000  1.762500  1.762500     0.096333    0.079630    0.002030  
      5.287500  3.525000  1.762500     0.096333    0.079630    0.002030  
      7.050000  5.287500  1.762500     0.096333    0.079630    0.002030  
      3.525000  0.000000  3.525000     0.096333    0.079630    0.002030  
      5.287500  1.762500  3.525000     0.096333    0.079630    0.002030  
      7.050000  3.525000  3.525000     0.096333    0.079630    0.002030  
      8.812500  5.287500  3.525000     0.096333    0.079630    0.002030  
      5.287500  0.000000  5.287500     0.096333    0.079630    0.002030  
      7.050000  1.762500  5.287500     0.096333    0.079630    0.002030  
      8.812500  3.525000  5.287500     0.096333    0.079630    0.002030  
     10.575000  5.287500  5.287500     0.096333    0.079630    0.002030  
      0.000000  1.762500  1.762500     0.096333    0.079630    0.002030  
      1.762500  3.525000  1.762500     0.096333    0.079630    0.002030  
      3.525000  5.287500  1.762500     0.096333    0.079630    0.002030  
      5.287500  7.050000  1.762500     0.096333    0.079630    0.002030  
      1.762500  1.762500  3.525000     0.096333    0.079630    0.002030  
      3.525000  3.525000  3.525000     0.096333    0.079630    0.002030  
      5.287500  5.287500  3.525000     0.096333    0.079630    0.002030  
      7.050000  7.050000  3.525000     0.096333    0.079630    0.002030  
      3.525000  1.762500  5.287500     0.096333    0.079630    0.002030  
      5.287500  3.525000  5.287500     0.096333    0.079630    0.002030  
      7.050000  5.287500  5.287500     0.096333    0.079630    0.002030  
      8.812500  7.050000  5.287500     0.096333    0.079630    0.002030  
      5.287500  1.762500  7.050000     0.096333    0.079630    0.002030  
      7.050000  3.525000  7.050000     0.096333    0.079630    0.002030  
      8.812500  5.287500  7.050000     0.096333    0.079630    0.002030  
     10.575000  7.050000  7.050000     0.096333    0.079630    0.002030  
      0.000000  3.525000  3.525000     0.096333    0.079630    0.002030  
      1.762500  5.287500  3.525000     0.096333    0.079630    0.002030  
      3.525000  7.050000  3.525000     0.096333    0.079630    0.002030  
      5.287500  8.812500  3.525000     0.096333    0.079630    0.002030  
      1.762500  3.525000  5.287500     0.096333    0.079630    0.002030  
      3.525000  5.287500  5.287500     0.096333    0.079630    0.002030  
      5.287500  7.050000  5.287500     0.096333    0.079630    0.002030  
      7.050000  8.812500  5.287500     0.096333    0.079630    0.002030  
      3.525000  3.525000  7.050000     0.096333    0.079630    0.002030  
      5.287500  5.287500  7.050000     0.096333    0.079630    0.002030  
      7.050000  7.050000  7.050000     0.096333    0.079630    0.002030  
      8.812500  8.812500  7.050000     0.096333    0.079630    0.002030  
      5.287500  3.525000  8.812500     0.096333    0.079630    0.002030  
      7.050000  5.287500  8.812500     0.096333    0.079630    0.002030  
      8.812500  7.050000  8.812500     0.096333    0.079630    0.002030  
     10.575000  8.812500  8.812500     0.096333    0.079630    0.002030  
      0.000000  5.287500  5.287500     0.096333    0.079630    0.002030  
      1.762500  7.050000  5.287500     0.096333    0.079630    0.002030  
      3.525000  8.812500  5.287500     0.096333    0.079630    0.002030  
      5.287500 10.575000  5.287500     0.096333    0.079630    0.002030  
      1.762500  5.287500  7.050000     0.096333    0.079630    0.002030  
      3.525000  7.050000  7.050000     0.096333    0.079630    0.002030  
      5.287500  8.812500  7.050000     0.096333    0.079630    0.002030  
      7.050000 10.575000  7.050000     0.096333    0.079630    0.002030  
      3.525000  5.287500  8.812500     0.096333    0.079630    0.002030  
      5.287500  7.050000  8.812500     0.096333    0.079630    0.002030  
      7.050000  8.812500  8.812500     0.096333    0.079630    0.002030  
      8.812500 10.575000  8.812500     0.096333    0.079630    0.002030  
      5.287500  5.287500 10.575000     0.096333    0.079630    0.002030  
      7.050000  7.050000 10.575000     0.096333    0.079630    0.002030  
      8.812500  8.812500 10.575000     0.096333    0.079630    0.002030  
     10.575000 10.575000 10.575000     0.096333    0.079630    0.002030  
 

 ELASTIC MODULI CONTR FROM IONIC RELAXATION (kBar)
 Direction    XX          YY          ZZ          XY          YZ          ZX
 --------------------------------------------------------------------------------
 XX          -0.0000     -0.0000     -0.0000      0.0000      0.0000      0.0000
 YY          -0.0000     -0.0000     -0.0000      0.0000      0.0000      0.0000
 ZZ          -0.0000     -0.0000     -0.0000      0.0000      0.0000      0.0000
 XY           0.0000      0.0000     -0.0000     -0.0000      0.0000     -0.0000
 YZ          -0.0000      0.0000     -0.0000     -0.0000      0.0000     -0.0000
 ZX           0.0000      0.0000      0.0000      0.0000     -0.0000     -0.0000
 --------------------------------------------------------------------------------



--------------------------------------------------------------------------------------------------------


  LATTYP: Found a face centered cubic cell.
 ALAT       =    14.1000000000
  
  Lattice vectors:
  
 A1 = (   0.0000000000,   7.0500000000,   7.0500000000)
 A2 = (   7.0500000000,   0.0000000000,   7.0500000000)
 A3 = (   7.0500000000,   7.0500000000,   0.0000000000)


Analysis of symmetry for initial positions (statically):
=====================================================================
 Subroutine PRICEL returns following result:
 
  LATTYP: Found a face centered cubic cell.
 ALAT       =     3.5250000000
  
  Lattice vectors:
  
 A1 = (   0.0000000000,   1.7625000000,   1.7625000000)
 A2 = (   1.7625000000,   0.0000000000,   1.7625000000)
 A3 = (   1.7625000000,   1.7625000000,   0.0000000000)
 
  64 primitive cells build up your supercell.
 

 Routine SETGRP: Setting up the symmetry group for a 
 face centered cubic supercell.


 Subroutine GETGRP returns: Found 48 space group operations
 (whereof 48 operations were pure point group operations)
 out of a pool of 48 trial point group operations.


The static configuration has the point symmetry O_h .


Analysis of symmetry for dynamics (positions and initial velocities):
=====================================================================
 Subroutine PRICEL returns following result:
 
  LATTYP: Found a face centered cubic cell.
 ALAT       =     3.5250000000
  
  Lattice vectors:
  
 A1 = (   0.0000000000,   1.7625000000,   1.7625000000)
 A2 = (   1.7625000000,   0.0000000000,   1.7625000000)
 A3 = (   1.7625000000,   1.7625000000,   0.0000000000)
 
  64 primitive cells build up your supercell.
 

 Routine SETGRP: Setting up the symmetry group for a 
 face centered cubic supercell.


 Subroutine GETGRP returns: Found 48 space group operations
 (whereof 48 operations were pure point group operations)
 out of a pool of 48 trial point group operations.


The dynamic configuration has the point symmetry O_h .


Analysis of structural, dynamic, and magnetic symmetry:
=====================================================================
 Subroutine PRICEL returns following result:
 
  LATTYP: Found a face centered cubic cell.
 ALAT       =     3.5250000000
  
  Lattice vectors:
  
 A1 = (   0.0000000000,   1.7625000000,   1.7625000000)
 A2 = (   1.7625000000,   0.0000000000,   1.7625000000)
 A3 = (   1.7625000000,   1.7625000000,   0.0000000000)
 
  64 primitive cells build up your supercell.
 

 Routine SETGRP: Setting up the symmetry group for a 
 face centered cubic supercell.


 Subroutine GETGRP returns: Found 48 space group operations
 (whereof 48 operations were pure point group operations)
 out of a pool of 48 trial point group operations.


The magnetic configuration has the point symmetry O_h .


 Subroutine INISYM returns: Found 48 space group operations
 (whereof 48 operations are pure point group operations),
 and found    64 'primitive' translations

 
 KPOINTS: Zr 15x15x15                             

Automatic generation of k-mesh.
Space group operators:
 irot       det(A)        alpha          n_x          n_y          n_z        tau_x        tau_y        tau_z
    1     1.000000     0.000000     1.000000     0.000000     0.000000     0.000000     0.000000     0.000000
    2    -1.000000     0.000000     1.000000     0.000000     0.000000     0.000000     0.000000     0.000000
    3     1.000000   120.000000    -0.577350    -0.577350    -0.577350     0.000000     0.000000     0.000000
    4    -1.000000   120.000000    -0.577350    -0.577350    -0.577350     0.000000     0.000000     0.000000
    5     1.000000   120.000000     0.577350     0.577350     0.577350     0.000000     0.000000     0.000000
    6    -1.000000   120.000000     0.577350     0.577350     0.577350     0.000000     0.000000     0.000000
    7     1.000000    90.000000     0.000000     0.000000    -1.000000     0.000000     0.000000     0.000000
    8    -1.000000    90.000000     0.000000     0.000000    -1.000000     0.000000     0.000000     0.000000
    9     1.000000   180.000000     0.000000     0.707107     0.707107     0.000000     0.000000     0.000000
   10    -1.000000   180.000000     0.000000     0.707107     0.707107     0.000000     0.000000     0.000000
   11     1.000000    90.000000     0.000000     1.000000     0.000000     0.000000     0.000000     0.000000
   12    -1.000000    90.000000     0.000000     1.000000     0.000000     0.000000     0.000000     0.000000
   13     1.000000   180.000000     0.000000     0.000000     1.000000     0.000000     0.000000     0.000000
   14    -1.000000   180.000000     0.000000     0.000000     1.000000     0.000000     0.000000     0.000000
   15     1.000000   120.000000    -0.577350     0.577350     0.577350     0.000000     0.000000     0.000000
   16    -1.000000   120.000000    -0.577350     0.577350     0.577350     0.000000     0.000000     0.000000
   17     1.000000   120.000000    -0.577350     0.577350    -0.577350     0.000000     0.000000     0.000000
   18    -1.000000   120.000000    -0.577350     0.577350    -0.577350     0.000000     0.000000     0.000000
   19     1.000000    90.000000     0.000000     0.000000     1.000000     0.000000     0.000000     0.000000
   20    -1.000000    90.000000     0.000000     0.000000     1.000000     0.000000     0.000000     0.000000
   21     1.000000    90.000000    -1.000000     0.000000     0.000000     0.000000     0.000000     0.000000
   22    -1.000000    90.000000    -1.000000     0.000000     0.000000     0.000000     0.000000     0.000000
   23     1.000000   180.000000     0.707107     0.000000     0.707107     0.000000     0.000000     0.000000
   24    -1.000000   180.000000     0.707107     0.000000     0.707107     0.000000     0.000000     0.000000
   25     1.000000   120.000000     0.577350    -0.577350     0.577350     0.000000     0.000000     0.000000
   26    -1.000000   120.000000     0.577350    -0.577350     0.577350     0.000000     0.000000     0.000000
   27     1.000000   120.000000    -0.577350    -0.577350     0.577350     0.000000     0.000000     0.000000
   28    -1.000000   120.000000    -0.577350    -0.577350     0.577350     0.000000     0.000000     0.000000
   29     1.000000   180.000000     1.000000     0.000000     0.000000     0.000000     0.000000     0.000000
   30    -1.000000   180.000000     1.000000     0.000000     0.000000     0.000000     0.000000     0.000000
   31     1.000000    90.000000     0.000000    -1.000000     0.000000     0.000000     0.000000     0.000000
   32    -1.000000    90.000000     0.000000    -1.000000     0.000000     0.000000     0.000000     0.000000
   33     1.000000   180.000000     0.707107     0.707107     0.000000     0.000000     0.000000     0.000000
   34    -1.000000   180.000000     0.707107     0.707107     0.000000     0.000000     0.000000     0.000000
   35     1.000000    90.000000     1.000000     0.000000     0.000000     0.000000     0.000000     0.000000
   36    -1.000000    90.000000     1.000000     0.000000     0.000000     0.000000     0.000000     0.000000
   37     1.000000   120.000000     0.577350    -0.577350    -0.577350     0.000000     0.000000     0.000000
   38    -1.000000   120.000000     0.577350    -0.577350    -0.577350     0.000000     0.000000     0.000000
   39     1.000000   180.000000     0.000000     1.000000     0.000000     0.000000     0.000000     0.000000
   40    -1.000000   180.000000     0.000000     1.000000     0.000000     0.000000     0.000000     0.000000
   41     1.000000   120.000000     0.577350     0.577350    -0.577350     0.000000     0.000000     0.000000
   42    -1.000000   120.000000     0.577350     0.577350    -0.577350     0.000000     0.000000     0.000000
   43     1.000000   180.000000     0.000000    -0.707107     0.707107     0.000000     0.000000     0.000000
   44    -1.000000   180.000000     0.000000    -0.707107     0.707107     0.000000     0.000000     0.000000
   45     1.000000   180.000000     0.707107    -0.707107     0.000000     0.000000     0.000000     0.000000
   46    -1.000000   180.000000     0.707107    -0.707107     0.000000     0.000000     0.000000     0.000000
   47     1.000000   180.000000     0.707107     0.000000    -0.707107     0.000000     0.000000     0.000000
   48    -1.000000   180.000000     0.707107     0.000000    -0.707107     0.000000     0.000000     0.000000
 
 Subroutine IBZKPT returns following result:
 ===========================================
 
 Found      4 irreducible k-points:
 
 Following reciprocal coordinates:
            Coordinates               Weight
  0.000000  0.000000  0.000000      1.000000
  0.333333  0.000000  0.000000      8.000000
  0.333333  0.333333  0.000000      6.000000
 -0.333333  0.333333  0.000000     12.000000
 
 Following cartesian coordinates:
            Coordinates               Weight
  0.000000  0.000000  0.000000      1.000000
 -0.023641  0.023641  0.023641      8.000000
  0.000000  0.000000  0.047281      6.000000
  0.047281 -0.047281  0.000000     12.000000
 
 writing wavefunctions
     LOOP+:  cpu time 9322.4948: real time 9317.0974
    4ORBIT:  cpu time    0.0000: real time    0.0000

 total amount of memory used by VASP on root node  1355907. kBytes
========================================================================

   base      :      30000. kBytes
   nonlr-proj:      51103. kBytes
   fftplans  :      72476. kBytes
   grid      :     173932. kBytes
   one-center:       1990. kBytes
   wavefun   :    1026406. kBytes
 
  
  
 General timing and accounting informations for this job:
 ========================================================
  
                  Total CPU time used (sec):    48021.188
                            User time (sec):    48010.145
                          System time (sec):       11.041
                         Elapsed time (sec):    49967.715
  
                   Maximum memory used (kb):     3423600.
                   Average memory used (kb):           0.
  
                          Minor page faults:       326065
                          Major page faults:            6
                 Voluntary context switches:          769
