<?xml version="1.0" encoding="ISO-8859-1"?>
<modeling>
 <generator>
  <i name="program" type="string">vasp </i>
  <i name="version" type="string">5.4.1  </i>
  <i name="subversion" type="string">05Feb16 (build Oct 12 2016 17:31:35) complex                          parallel </i>
  <i name="platform" type="string">IFC91_ompi </i>
  <i name="date" type="string">2020 09 07 </i>
  <i name="time" type="string">12:03:23 </i>
 </generator>
 <incar>
  <i type="string" name="SYSTEM"> phonon of Zr bcc - omiga</i>
  <i type="string" name="PREC">a</i>
  <i type="int" name="ISPIN">     2</i>
  <i type="int" name="IBRION">     6</i>
  <i type="int" name="NFREE">     4</i>
  <i name="EDIFF">      0.00000100</i>
  <i type="int" name="NSW">     1</i>
  <v name="MAGMOM">      1.00000000      1.00000000      1.00000000      1.00000000      1.00000000      1.00000000      1.00000000      1.00000000      1.00000000      1.00000000      1.00000000      1.00000000      1.00000000      1.00000000      1.00000000      1.00000000      1.00000000      1.00000000      1.00000000      1.00000000
      1.00000000      1.00000000      1.00000000      1.00000000      1.00000000      1.00000000      1.00000000      1.00000000      1.00000000      1.00000000      1.00000000      1.00000000      1.00000000      1.00000000      1.00000000      1.00000000      1.00000000      1.00000000      1.00000000      1.00000000
      1.00000000      1.00000000      1.00000000      1.00000000      1.00000000      1.00000000      1.00000000      1.00000000      1.00000000      1.00000000      1.00000000      1.00000000      1.00000000      1.00000000      1.00000000      1.00000000      1.00000000      1.00000000      1.00000000      1.00000000
      1.00000000      1.00000000      1.00000000      1.00000000</v>
  <i type="string" name="LREAL">Auto</i>
  <i type="int" name="ISMEAR">     1</i>
  <i type="int" name="NWRITE">     0</i>
  <v type="int" name="KPOINT_BSE">    -1     0     0     0</v>
 </incar>
 <kpoints>
  <generation param="Gamma">
   <v type="int" name="divisions">       3        3        3 </v>
   <v name="usershift">      0.00000000       0.00000000       0.00000000 </v>
   <v name="genvec1">      0.33333333       0.00000000       0.00000000 </v>
   <v name="genvec2">      0.00000000       0.33333333       0.00000000 </v>
   <v name="genvec3">      0.00000000       0.00000000       0.33333333 </v>
   <v name="shift">      0.00000000       0.00000000       0.00000000 </v>
  </generation>
  <varray name="kpointlist" >
   <v>       0.00000000       0.00000000       0.00000000 </v>
   <v>       0.33333333       0.00000000       0.00000000 </v>
   <v>       0.33333333       0.33333333       0.00000000 </v>
   <v>      -0.33333333       0.33333333       0.00000000 </v>
  </varray>
  <varray name="weights" >
   <v>       0.03703704 </v>
   <v>       0.29629630 </v>
   <v>       0.22222222 </v>
   <v>       0.44444444 </v>
  </varray>
 </kpoints>
 <parameters>
  <separator name="general" >
   <i type="string" name="SYSTEM">phonon of Zr bcc - omiga</i>
   <i type="logical" name="LCOMPAT"> F  </i>
  </separator>
  <separator name="electronic" >
   <i type="string" name="PREC">a</i>
   <i name="ENMAX">    367.94500000</i>
   <i name="ENAUG">    703.44300000</i>
   <i name="EDIFF">      0.00000100</i>
   <i type="int" name="IALGO">    38</i>
   <i type="int" name="IWAVPR">    11</i>
   <i type="int" name="NBANDS">   646</i>
   <i name="NELECT">   1024.00000000</i>
   <i type="int" name="TURBO">     0</i>
   <i type="int" name="IRESTART">     0</i>
   <i type="int" name="NREBOOT">     0</i>
   <i type="int" name="NMIN">     0</i>
   <i name="EREF">      0.00000000</i>
   <separator name="electronic smearing" >
    <i type="int" name="ISMEAR">     1</i>
    <i name="SIGMA">      0.20000000</i>
    <i name="KSPACING">      0.50000000</i>
    <i type="logical" name="KGAMMA"> T  </i>
   </separator>
   <separator name="electronic projectors" >
    <i type="logical" name="LREAL"> T  </i>
    <v name="ROPT">     -0.00025000</v>
    <i type="int" name="LMAXPAW">  -100</i>
    <i type="int" name="LMAXMIX">     2</i>
    <i type="logical" name="NLSPLINE"> F  </i>
   </separator>
   <separator name="electronic startup" >
    <i type="int" name="ISTART">     0</i>
    <i type="int" name="ICHARG">     2</i>
    <i type="int" name="INIWAV">     1</i>
   </separator>
   <separator name="electronic spin" >
    <i type="int" name="ISPIN">     2</i>
    <i type="logical" name="LNONCOLLINEAR"> F  </i>
    <v name="MAGMOM">      1.00000000      1.00000000      1.00000000      1.00000000      1.00000000      1.00000000      1.00000000      1.00000000      1.00000000      1.00000000      1.00000000      1.00000000      1.00000000      1.00000000      1.00000000      1.00000000      1.00000000      1.00000000      1.00000000      1.00000000
      1.00000000      1.00000000      1.00000000      1.00000000      1.00000000      1.00000000      1.00000000      1.00000000      1.00000000      1.00000000      1.00000000      1.00000000      1.00000000      1.00000000      1.00000000      1.00000000      1.00000000      1.00000000      1.00000000      1.00000000
      1.00000000      1.00000000      1.00000000      1.00000000      1.00000000      1.00000000      1.00000000      1.00000000      1.00000000      1.00000000      1.00000000      1.00000000      1.00000000      1.00000000      1.00000000      1.00000000      1.00000000      1.00000000      1.00000000      1.00000000
      1.00000000      1.00000000      1.00000000      1.00000000</v>
    <i name="NUPDOWN">     -1.00000000</i>
    <i type="logical" name="LSORBIT"> F  </i>
    <v name="SAXIS">      0.00000000      0.00000000      1.00000000</v>
    <i type="logical" name="LSPIRAL"> F  </i>
    <v name="QSPIRAL">      0.00000000      0.00000000      0.00000000</v>
    <i type="logical" name="LZEROZ"> F  </i>
   </separator>
   <separator name="electronic exchange-correlation" >
    <i type="logical" name="LASPH"> F  </i>
    <i type="logical" name="LMETAGGA"> F  </i>
   </separator>
   <separator name="electronic convergence" >
    <i type="int" name="NELM">    60</i>
    <i type="int" name="NELMDL">     0</i>
    <i type="int" name="NELMIN">     2</i>
    <i name="ENINI">    367.94500000</i>
    <separator name="electronic convergence detail" >
     <i type="logical" name="LDIAG"> T  </i>
     <i type="logical" name="LSUBROT"> F  </i>
     <i name="WEIMIN">      0.00100000</i>
     <i name="EBREAK">      0.00000000</i>
     <i name="DEPER">      0.30000000</i>
     <i type="int" name="NRMM">     4</i>
     <i name="TIME">      0.40000000</i>
    </separator>
   </separator>
   <separator name="electronic mixer" >
    <i name="AMIX">      0.40000000</i>
    <i name="BMIX">      1.00000000</i>
    <i name="AMIN">      0.10000000</i>
    <i name="AMIX_MAG">      1.60000000</i>
    <i name="BMIX_MAG">      1.00000000</i>
    <separator name="electronic mixer details" >
     <i type="int" name="IMIX">     4</i>
     <i type="logical" name="MIXFIRST"> F  </i>
     <i type="int" name="MAXMIX">   -45</i>
     <i name="WC">    100.00000000</i>
     <i type="int" name="INIMIX">     1</i>
     <i type="int" name="MIXPRE">     1</i>
     <i type="int" name="MREMOVE">     5</i>
    </separator>
   </separator>
   <separator name="electronic dipolcorrection" >
    <i type="logical" name="LDIPOL"> F  </i>
    <i type="logical" name="LMONO"> F  </i>
    <i type="int" name="IDIPOL">     0</i>
    <i name="EPSILON">      1.00000000</i>
    <v name="DIPOL">   -100.00000000   -100.00000000   -100.00000000</v>
    <i name="EFIELD">      0.00000000</i>
   </separator>
  </separator>
  <separator name="grids" >
   <i type="int" name="NGX">    64</i>
   <i type="int" name="NGY">    64</i>
   <i type="int" name="NGZ">    64</i>
   <i type="int" name="NGXF">   128</i>
   <i type="int" name="NGYF">   128</i>
   <i type="int" name="NGZF">   128</i>
   <i type="logical" name="ADDGRID"> F  </i>
  </separator>
  <separator name="ionic" >
   <i type="int" name="NSW">   805</i>
   <i type="int" name="IBRION">     6</i>
   <i type="int" name="ISIF">     2</i>
   <i name="PSTRESS">      0.00000000</i>
   <i name="EDIFFG">      0.00001000</i>
   <i type="int" name="NFREE">     4</i>
   <i name="POTIM">      0.50000000</i>
   <i name="SMASS">     -3.00000000</i>
   <i name="SCALEE">      1.00000000</i>
  </separator>
  <separator name="ionic md" >
   <i name="TEBEG">      0.00010000</i>
   <i name="TEEND">      0.00010000</i>
   <i type="int" name="NBLOCK">     1</i>
   <i type="int" name="KBLOCK">     1</i>
   <i type="int" name="NPACO">   256</i>
   <i name="APACO">     16.00000000</i>
  </separator>
  <separator name="symmetry" >
   <i type="int" name="ISYM">     2</i>
   <i name="SYMPREC">      0.00001000</i>
  </separator>
  <separator name="dos" >
   <i type="logical" name="LORBIT"> F  </i>
   <v name="RWIGS">     -1.00000000</v>
   <i type="int" name="NEDOS">   301</i>
   <i name="EMIN">     10.00000000</i>
   <i name="EMAX">    -10.00000000</i>
   <i name="EFERMI">      0.00000000</i>
  </separator>
  <separator name="writing" >
   <i type="int" name="NWRITE">     0</i>
   <i type="logical" name="LWAVE"> T  </i>
   <i type="logical" name="LCHARG"> T  </i>
   <i type="logical" name="LPARD"> F  </i>
   <i type="logical" name="LVTOT"> F  </i>
   <i type="logical" name="LVHAR"> F  </i>
   <i type="logical" name="LELF"> F  </i>
   <i type="logical" name="LOPTICS"> F  </i>
   <v name="STM">      0.00000000      0.00000000      0.00000000      0.00000000      0.00000000      0.00000000      0.00000000</v>
  </separator>
  <separator name="performance" >
   <i type="int" name="NPAR">     1</i>
   <i type="int" name="NSIM">     4</i>
   <i type="int" name="NBLK">    -1</i>
   <i type="logical" name="LPLANE"> T  </i>
   <i type="logical" name="LSCALAPACK"> T  </i>
   <i type="logical" name="LSCAAWARE"> F  </i>
   <i type="logical" name="LSCALU"> F  </i>
   <i type="logical" name="LASYNC"> F  </i>
   <i type="logical" name="LORBITALREAL"> F  </i>
  </separator>
  <separator name="miscellaneous" >
   <i type="int" name="IDIOT">     3</i>
   <i type="logical" name="LMUSIC"> F  </i>
   <v name="POMASS">     58.69000000</v>
   <v name="DARWINR">      0.00000000</v>
   <v name="DARWINV">      1.00000000</v>
   <i type="logical" name="LCORR"> T  </i>
  </separator>
  <i type="logical" name="GGA_COMPAT"> T  </i>
  <i type="logical" name="LBERRY"> F  </i>
  <i type="int" name="ICORELEVEL">     0</i>
  <i type="logical" name="LDAU"> F  </i>
  <i type="int" name="I_CONSTRAINED_M">     0</i>
  <separator name="electronic exchange-correlation" >
   <i type="string" name="GGA">--</i>
   <i type="int" name="VOSKOWN">     0</i>
   <i type="logical" name="LHFCALC"> F  </i>
   <i type="string" name="PRECFOCK"></i>
   <i type="logical" name="LSYMGRAD"> F  </i>
   <i type="logical" name="LHFONE"> F  </i>
   <i type="logical" name="LRHFCALC"> F  </i>
   <i type="logical" name="LTHOMAS"> F  </i>
   <i type="logical" name="LMODELHF"> F  </i>
   <i name="ENCUT4O">     -1.00000000</i>
   <i type="int" name="EXXOEP">     0</i>
   <i type="int" name="FOURORBIT">     0</i>
   <i name="AEXX">      0.00000000</i>
   <i name="HFALPHA">      0.00000000</i>
   <i name="MCALPHA">      0.00000000</i>
   <i name="ALDAX">      1.00000000</i>
   <i name="AGGAX">      1.00000000</i>
   <i name="ALDAC">      1.00000000</i>
   <i name="AGGAC">      1.00000000</i>
   <i type="int" name="NKREDX">     1</i>
   <i type="int" name="NKREDY">     1</i>
   <i type="int" name="NKREDZ">     1</i>
   <i type="logical" name="SHIFTRED"> F  </i>
   <i type="logical" name="ODDONLY"> F  </i>
   <i type="logical" name="EVENONLY"> F  </i>
   <i type="int" name="LMAXFOCK">     0</i>
   <i type="int" name="NMAXFOCKAE">     0</i>
   <i type="logical" name="LFOCKAEDFT"> F  </i>
   <i name="HFSCREEN">      0.00000000</i>
   <i name="HFSCREENC">      0.00000000</i>
   <i type="int" name="NBANDSGWLOW">     0</i>
  </separator>
  <separator name="vdW DFT" >
   <i type="logical" name="LUSE_VDW"> F  </i>
   <i name="Zab_VDW">     -0.84910000</i>
   <i name="PARAM1">      0.12340000</i>
   <i name="PARAM2">      1.00000000</i>
   <i name="PARAM3">      0.00000000</i>
  </separator>
  <separator name="model GW" >
   <i type="int" name="MODEL_GW">     0</i>
   <i name="MODEL_EPS0">      6.57004922</i>
   <i name="MODEL_ALPHA">      1.00000000</i>
  </separator>
  <separator name="linear response parameters" >
   <i type="logical" name="LEPSILON"> F  </i>
   <i type="logical" name="LRPA"> F  </i>
   <i type="logical" name="LNABLA"> F  </i>
   <i type="logical" name="LVEL"> F  </i>
   <i type="int" name="KINTER">     0</i>
   <i name="CSHIFT">      0.10000000</i>
   <i name="OMEGAMAX">     -1.00000000</i>
   <i name="DEG_THRESHOLD">      0.00200000</i>
  </separator>
  <separator name="orbital magnetization" >
   <i type="logical" name="NUCIND"> F  </i>
   <v name="MAGPOS">      0.00000000      0.00000000      0.00000000</v>
   <i type="logical" name="LNICSALL"> T  </i>
   <i type="logical" name="ORBITALMAG"> F  </i>
   <i type="logical" name="LMAGBLOCH"> F  </i>
   <i type="logical" name="LCHIMAG"> F  </i>
   <i type="logical" name="LGAUGE"> T  </i>
   <i type="int" name="MAGATOM">     0</i>
   <v name="MAGDIPOL">      0.00000000      0.00000000      0.00000000</v>
   <v name="AVECCONST">      0.00000000      0.00000000      0.00000000</v>
  </separator>
  <separator name="response functions" >
   <i type="logical" name="LADDER"> F  </i>
   <i type="logical" name="LFXC"> F  </i>
   <i type="logical" name="LHARTREE"> T  </i>
   <i type="int" name="IBSE">     0</i>
   <v type="int" name="KPOINT">    -1     0     0     0</v>
   <i type="logical" name="LTCTE"> F  </i>
   <i type="logical" name="LTETE"> F  </i>
   <i type="logical" name="LTRIPLET"> F  </i>
   <i type="logical" name="LFXCEPS"> F  </i>
   <i type="logical" name="LFXHEG"> F  </i>
   <i type="int" name="NATURALO">     0</i>
   <i type="logical" name="L2ORDER"> F  </i>
   <i type="logical" name="LUSEW"> F  </i>
   <i name="ENCUTGW">     -2.00000000</i>
   <i name="ENCUTGWSOFT">     -2.00000000</i>
   <i name="ENCUTLF">     -1.00000000</i>
   <i type="int" name="LMAXMP2">    -1</i>
   <i name="SCISSOR">      0.00000000</i>
   <i type="int" name="NOMEGA">     0</i>
   <i type="int" name="NOMEGAR">     0</i>
   <i type="int" name="NBANDSGW">    -1</i>
   <i type="int" name="NBANDSO">    -1</i>
   <i type="int" name="NBANDSV">    -1</i>
   <i type="int" name="NELM">     1</i>
   <i type="int" name="NELMHF">     1</i>
   <i type="int" name="DIM">     3</i>
   <i type="int" name="ANTIRES">     0</i>
   <i name="OMEGAMAX">    -30.00000000</i>
   <i name="OMEGAMIN">    -30.00000000</i>
   <i name="OMEGATL">   -200.00000000</i>
   <i type="int" name="OMEGAGRID">     0</i>
   <i name="CSHIFT">     -0.10000000</i>
   <i type="logical" name="SELFENERGY"> F  </i>
   <i type="logical" name="LSPECTRAL"> F  </i>
   <i type="logical" name="LSPECTRALGW"> F  </i>
   <i type="logical" name="LSINGLES"> F  </i>
   <i type="logical" name="LFERMIGW"> F  </i>
   <i type="logical" name="ODDONLYGW"> F  </i>
   <i type="logical" name="EVENONLYGW"> F  </i>
   <i type="int" name="NKREDLFX">     1</i>
   <i type="int" name="NKREDLFY">     1</i>
   <i type="int" name="NKREDLFZ">     1</i>
   <i type="int" name="MAXMEM">  1800</i>
   <i type="int" name="TELESCOPE">     0</i>
   <i type="int" name="TAUPAR">     1</i>
   <i type="int" name="OMEGAPAR">    -1</i>
   <i name="LAMBDA">      1.00000000</i>
  </separator>
  <separator name="External order field" >
   <i name="OFIELD_KAPPA">      0.00000000</i>
   <v name="OFIELD_K">      0.00000000      0.00000000      0.00000000</v>
   <i name="OFIELD_Q6_NEAR">      0.00000000</i>
   <i name="OFIELD_Q6_FAR">      0.00000000</i>
   <i name="OFIELD_A">      0.00000000</i>
  </separator>
 </parameters>
 <atominfo>
  <atoms>      64 </atoms>
  <types>       1 </types>
  <array name="atoms" >
   <dimension dim="1">ion</dimension>
   <field type="string">element</field>
   <field type="int">atomtype</field>
   <set>
    <rc><c>Ni</c><c>   1</c></rc>
    <rc><c>Ni</c><c>   1</c></rc>
    <rc><c>Ni</c><c>   1</c></rc>
    <rc><c>Ni</c><c>   1</c></rc>
    <rc><c>Ni</c><c>   1</c></rc>
    <rc><c>Ni</c><c>   1</c></rc>
    <rc><c>Ni</c><c>   1</c></rc>
    <rc><c>Ni</c><c>   1</c></rc>
    <rc><c>Ni</c><c>   1</c></rc>
    <rc><c>Ni</c><c>   1</c></rc>
    <rc><c>Ni</c><c>   1</c></rc>
    <rc><c>Ni</c><c>   1</c></rc>
    <rc><c>Ni</c><c>   1</c></rc>
    <rc><c>Ni</c><c>   1</c></rc>
    <rc><c>Ni</c><c>   1</c></rc>
    <rc><c>Ni</c><c>   1</c></rc>
    <rc><c>Ni</c><c>   1</c></rc>
    <rc><c>Ni</c><c>   1</c></rc>
    <rc><c>Ni</c><c>   1</c></rc>
    <rc><c>Ni</c><c>   1</c></rc>
    <rc><c>Ni</c><c>   1</c></rc>
    <rc><c>Ni</c><c>   1</c></rc>
    <rc><c>Ni</c><c>   1</c></rc>
    <rc><c>Ni</c><c>   1</c></rc>
    <rc><c>Ni</c><c>   1</c></rc>
    <rc><c>Ni</c><c>   1</c></rc>
    <rc><c>Ni</c><c>   1</c></rc>
    <rc><c>Ni</c><c>   1</c></rc>
    <rc><c>Ni</c><c>   1</c></rc>
    <rc><c>Ni</c><c>   1</c></rc>
    <rc><c>Ni</c><c>   1</c></rc>
    <rc><c>Ni</c><c>   1</c></rc>
    <rc><c>Ni</c><c>   1</c></rc>
    <rc><c>Ni</c><c>   1</c></rc>
    <rc><c>Ni</c><c>   1</c></rc>
    <rc><c>Ni</c><c>   1</c></rc>
    <rc><c>Ni</c><c>   1</c></rc>
    <rc><c>Ni</c><c>   1</c></rc>
    <rc><c>Ni</c><c>   1</c></rc>
    <rc><c>Ni</c><c>   1</c></rc>
    <rc><c>Ni</c><c>   1</c></rc>
    <rc><c>Ni</c><c>   1</c></rc>
    <rc><c>Ni</c><c>   1</c></rc>
    <rc><c>Ni</c><c>   1</c></rc>
    <rc><c>Ni</c><c>   1</c></rc>
    <rc><c>Ni</c><c>   1</c></rc>
    <rc><c>Ni</c><c>   1</c></rc>
    <rc><c>Ni</c><c>   1</c></rc>
    <rc><c>Ni</c><c>   1</c></rc>
    <rc><c>Ni</c><c>   1</c></rc>
    <rc><c>Ni</c><c>   1</c></rc>
    <rc><c>Ni</c><c>   1</c></rc>
    <rc><c>Ni</c><c>   1</c></rc>
    <rc><c>Ni</c><c>   1</c></rc>
    <rc><c>Ni</c><c>   1</c></rc>
    <rc><c>Ni</c><c>   1</c></rc>
    <rc><c>Ni</c><c>   1</c></rc>
    <rc><c>Ni</c><c>   1</c></rc>
    <rc><c>Ni</c><c>   1</c></rc>
    <rc><c>Ni</c><c>   1</c></rc>
    <rc><c>Ni</c><c>   1</c></rc>
    <rc><c>Ni</c><c>   1</c></rc>
    <rc><c>Ni</c><c>   1</c></rc>
    <rc><c>Ni</c><c>   1</c></rc>
   </set>
  </array>
  <array name="atomtypes" >
   <dimension dim="1">type</dimension>
   <field type="int">atomspertype</field>
   <field type="string">element</field>
   <field>mass</field>
   <field>valence</field>
   <field type="string">pseudopotential</field>
   <set>
    <rc><c>  64</c><c>Ni</c><c>     58.69000000</c><c>     16.00000000</c><c> PAW_PBE Ni_pv 06Sep2000                </c></rc>
   </set>
  </array>
 </atominfo>
 <structure name="initialpos" >
  <crystal>
   <varray name="basis" >
    <v>       0.00000000       7.05000000       7.05000000 </v>
    <v>       7.05000000       0.00000000       7.05000000 </v>
    <v>       7.05000000       7.05000000       0.00000000 </v>
   </varray>
   <i name="volume">    700.80525000 </i>
   <varray name="rec_basis" >
    <v>      -0.07092199       0.07092199       0.07092199 </v>
    <v>       0.07092199      -0.07092199       0.07092199 </v>
    <v>       0.07092199       0.07092199      -0.07092199 </v>
   </varray>
  </crystal>
  <varray name="positions" >
   <v>       0.00000000       0.00000000       0.00000000 </v>
   <v>       0.00000000       0.00000000       0.25000000 </v>
   <v>       0.00000000       0.00000000       0.50000000 </v>
   <v>       0.00000000       0.00000000       0.75000000 </v>
   <v>       0.00000000       0.25000000       0.00000000 </v>
   <v>       0.00000000       0.25000000       0.25000000 </v>
   <v>       0.00000000       0.25000000       0.50000000 </v>
   <v>       0.00000000       0.25000000       0.75000000 </v>
   <v>       0.00000000       0.50000000       0.00000000 </v>
   <v>       0.00000000       0.50000000       0.25000000 </v>
   <v>       0.00000000       0.50000000       0.50000000 </v>
   <v>       0.00000000       0.50000000       0.75000000 </v>
   <v>       0.00000000       0.75000000       0.00000000 </v>
   <v>       0.00000000       0.75000000       0.25000000 </v>
   <v>       0.00000000       0.75000000       0.50000000 </v>
   <v>       0.00000000       0.75000000       0.75000000 </v>
   <v>       0.25000000       0.00000000       0.00000000 </v>
   <v>       0.25000000       0.00000000       0.25000000 </v>
   <v>       0.25000000       0.00000000       0.50000000 </v>
   <v>       0.25000000       0.00000000       0.75000000 </v>
   <v>       0.25000000       0.25000000       0.00000000 </v>
   <v>       0.25000000       0.25000000       0.25000000 </v>
   <v>       0.25000000       0.25000000       0.50000000 </v>
   <v>       0.25000000       0.25000000       0.75000000 </v>
   <v>       0.25000000       0.50000000       0.00000000 </v>
   <v>       0.25000000       0.50000000       0.25000000 </v>
   <v>       0.25000000       0.50000000       0.50000000 </v>
   <v>       0.25000000       0.50000000       0.75000000 </v>
   <v>       0.25000000       0.75000000       0.00000000 </v>
   <v>       0.25000000       0.75000000       0.25000000 </v>
   <v>       0.25000000       0.75000000       0.50000000 </v>
   <v>       0.25000000       0.75000000       0.75000000 </v>
   <v>       0.50000000       0.00000000       0.00000000 </v>
   <v>       0.50000000       0.00000000       0.25000000 </v>
   <v>       0.50000000       0.00000000       0.50000000 </v>
   <v>       0.50000000       0.00000000       0.75000000 </v>
   <v>       0.50000000       0.25000000       0.00000000 </v>
   <v>       0.50000000       0.25000000       0.25000000 </v>
   <v>       0.50000000       0.25000000       0.50000000 </v>
   <v>       0.50000000       0.25000000       0.75000000 </v>
   <v>       0.50000000       0.50000000       0.00000000 </v>
   <v>       0.50000000       0.50000000       0.25000000 </v>
   <v>       0.50000000       0.50000000       0.50000000 </v>
   <v>       0.50000000       0.50000000       0.75000000 </v>
   <v>       0.50000000       0.75000000       0.00000000 </v>
   <v>       0.50000000       0.75000000       0.25000000 </v>
   <v>       0.50000000       0.75000000       0.50000000 </v>
   <v>       0.50000000       0.75000000       0.75000000 </v>
   <v>       0.75000000       0.00000000       0.00000000 </v>
   <v>       0.75000000       0.00000000       0.25000000 </v>
   <v>       0.75000000       0.00000000       0.50000000 </v>
   <v>       0.75000000       0.00000000       0.75000000 </v>
   <v>       0.75000000       0.25000000       0.00000000 </v>
   <v>       0.75000000       0.25000000       0.25000000 </v>
   <v>       0.75000000       0.25000000       0.50000000 </v>
   <v>       0.75000000       0.25000000       0.75000000 </v>
   <v>       0.75000000       0.50000000       0.00000000 </v>
   <v>       0.75000000       0.50000000       0.25000000 </v>
   <v>       0.75000000       0.50000000       0.50000000 </v>
   <v>       0.75000000       0.50000000       0.75000000 </v>
   <v>       0.75000000       0.75000000       0.00000000 </v>
   <v>       0.75000000       0.75000000       0.25000000 </v>
   <v>       0.75000000       0.75000000       0.50000000 </v>
   <v>       0.75000000       0.75000000       0.75000000 </v>
  </varray>
 </structure>
 <calculation>
  <scstep>
   <time name="dav">  433.10  432.75</time>
   <time name="total">  435.63  435.28</time>
   <energy>
    <i name="alphaZ">   9846.09864404 </i>
    <i name="ewald">-153431.04596326 </i>
    <i name="hartreedc"> -61842.66455428 </i>
    <i name="XCdc">   5718.00711084 </i>
    <i name="pawpsdc"> 172361.15642774 </i>
    <i name="pawaedc">-181272.45834873 </i>
    <i name="eentropy">     -0.00991936 </i>
    <i name="bandstr">  -1456.40267262 </i>
    <i name="atom"> 224013.29143063 </i>
    <i name="e_fr_energy">  13935.97215500 </i>
    <i name="e_wo_entrp">  13935.98207436 </i>
    <i name="e_0_energy">  13935.97546145 </i>
   </energy>
  </scstep>
  <scstep>
   <time name="dav">  385.44  385.12</time>
   <time name="total">  385.46  385.14</time>
   <energy>
    <i name="e_fr_energy">    813.93670324 </i>
    <i name="e_wo_entrp">    813.93406974 </i>
    <i name="e_0_energy">    813.93582540 </i>
   </energy>
  </scstep>
  <scstep>
   <time name="dav">  393.84  393.52</time>
   <time name="total">  393.86  393.53</time>
   <energy>
    <i name="e_fr_energy">   -370.40612816 </i>
    <i name="e_wo_entrp">   -370.55977109 </i>
    <i name="e_0_energy">   -370.45734247 </i>
   </energy>
  </scstep>
  <scstep>
   <time name="dav">  405.98  405.64</time>
   <time name="total">  405.99  405.66</time>
   <energy>
    <i name="e_fr_energy">   -431.08743982 </i>
    <i name="e_wo_entrp">   -431.25110463 </i>
    <i name="e_0_energy">   -431.14199475 </i>
   </energy>
  </scstep>
  <scstep>
   <time name="dav">  402.61  402.28</time>
   <time name="total">  419.39  419.04</time>
   <energy>
    <i name="e_fr_energy">   -431.98223654 </i>
    <i name="e_wo_entrp">   -432.14592854 </i>
    <i name="e_0_energy">   -432.03680054 </i>
   </energy>
  </scstep>
  <scstep>
   <time name="dav">  400.37  400.04</time>
   <time name="total">  419.87  419.52</time>
   <energy>
    <i name="e_fr_energy">   -395.61504567 </i>
    <i name="e_wo_entrp">   -395.27242620 </i>
    <i name="e_0_energy">   -395.50083918 </i>
   </energy>
  </scstep>
  <scstep>
   <time name="dav">  398.17  397.84</time>
   <time name="total">  417.54  417.20</time>
   <energy>
    <i name="e_fr_energy">   -368.38527619 </i>
    <i name="e_wo_entrp">   -368.32684123 </i>
    <i name="e_0_energy">   -368.36579787 </i>
   </energy>
  </scstep>
  <scstep>
   <time name="dav">  406.27  405.93</time>
   <time name="total">  425.65  425.30</time>
   <energy>
    <i name="e_fr_energy">   -368.40349595 </i>
    <i name="e_wo_entrp">   -368.32835860 </i>
    <i name="e_0_energy">   -368.37845017 </i>
   </energy>
  </scstep>
  <scstep>
   <time name="dav">  408.68  408.35</time>
   <time name="total">  428.10  427.75</time>
   <energy>
    <i name="e_fr_energy">   -368.28364908 </i>
    <i name="e_wo_entrp">   -368.19075381 </i>
    <i name="e_0_energy">   -368.25268399 </i>
   </energy>
  </scstep>
  <scstep>
   <time name="dav">  424.99  424.64</time>
   <time name="total">  444.41  444.04</time>
   <energy>
    <i name="e_fr_energy">   -368.28788416 </i>
    <i name="e_wo_entrp">   -368.19617678 </i>
    <i name="e_0_energy">   -368.25731503 </i>
   </energy>
  </scstep>
  <scstep>
   <time name="dav">  398.92  398.59</time>
   <time name="total">  420.03  419.69</time>
   <energy>
    <i name="e_fr_energy">   -368.29118071 </i>
    <i name="e_wo_entrp">   -368.20143357 </i>
    <i name="e_0_energy">   -368.26126499 </i>
   </energy>
  </scstep>
  <scstep>
   <time name="dav">  399.74  399.41</time>
   <time name="total">  420.86  420.51</time>
   <energy>
    <i name="e_fr_energy">   -368.29118807 </i>
    <i name="e_wo_entrp">   -368.19989541 </i>
    <i name="e_0_energy">   -368.26075718 </i>
   </energy>
  </scstep>
  <scstep>
   <time name="dav">  368.48  368.18</time>
   <time name="total">  389.61  389.29</time>
   <energy>
    <i name="e_fr_energy">   -368.29119256 </i>
    <i name="e_wo_entrp">   -368.19948580 </i>
    <i name="e_0_energy">   -368.26062364 </i>
   </energy>
  </scstep>
  <scstep>
   <time name="dav">  351.50  351.21</time>
   <time name="total">  372.63  372.32</time>
   <energy>
    <i name="e_fr_energy">   -368.29116833 </i>
    <i name="e_wo_entrp">   -368.19936166 </i>
    <i name="e_0_energy">   -368.26056610 </i>
   </energy>
  </scstep>
  <scstep>
   <time name="dav">  244.95  244.75</time>
   <time name="total">  266.09  265.87</time>
   <energy>
    <i name="e_fr_energy">   -368.29116204 </i>
    <i name="e_wo_entrp">   -368.19942855 </i>
    <i name="e_0_energy">   -368.26058421 </i>
   </energy>
  </scstep>
  <scstep>
   <time name="dav">  245.09  244.89</time>
   <time name="total">  247.57  247.37</time>
   <energy>
    <i name="alphaZ">   9846.09864404 </i>
    <i name="ewald">-153431.04596326 </i>
    <i name="hartreedc"> -59479.27790031 </i>
    <i name="XCdc">   5628.32777039 </i>
    <i name="pawpsdc"> 172130.60439196 </i>
    <i name="pawaedc">-181181.55052293 </i>
    <i name="eentropy">     -0.09168311 </i>
    <i name="bandstr"> -17894.64732947 </i>
    <i name="atom"> 224013.29143063 </i>
    <i name="e_fr_energy">   -368.29116206 </i>
    <i name="e_wo_entrp">   -368.19947895 </i>
    <i name="e_0_energy">   -368.26060102 </i>
   </energy>
  </scstep>
  <structure>
   <crystal>
    <varray name="basis" >
     <v>       0.00000000       7.05000000       7.05000000 </v>
     <v>       7.05000000       0.00000000       7.05000000 </v>
     <v>       7.05000000       7.05000000       0.00000000 </v>
    </varray>
    <i name="volume">    700.80525000 </i>
    <varray name="rec_basis" >
     <v>      -0.07092199       0.07092199       0.07092199 </v>
     <v>       0.07092199      -0.07092199       0.07092199 </v>
     <v>       0.07092199       0.07092199      -0.07092199 </v>
    </varray>
   </crystal>
   <varray name="positions" >
    <v>       0.00000000       0.00000000       0.00000000 </v>
    <v>       0.00000000       0.00000000       0.25000000 </v>
    <v>       0.00000000       0.00000000       0.50000000 </v>
    <v>       0.00000000       0.00000000       0.75000000 </v>
    <v>       0.00000000       0.25000000       0.00000000 </v>
    <v>       0.00000000       0.25000000       0.25000000 </v>
    <v>       0.00000000       0.25000000       0.50000000 </v>
    <v>       0.00000000       0.25000000       0.75000000 </v>
    <v>       0.00000000       0.50000000       0.00000000 </v>
    <v>       0.00000000       0.50000000       0.25000000 </v>
    <v>       0.00000000       0.50000000       0.50000000 </v>
    <v>       0.00000000       0.50000000       0.75000000 </v>
    <v>       0.00000000       0.75000000       0.00000000 </v>
    <v>       0.00000000       0.75000000       0.25000000 </v>
    <v>       0.00000000       0.75000000       0.50000000 </v>
    <v>       0.00000000       0.75000000       0.75000000 </v>
    <v>       0.25000000       0.00000000       0.00000000 </v>
    <v>       0.25000000       0.00000000       0.25000000 </v>
    <v>       0.25000000       0.00000000       0.50000000 </v>
    <v>       0.25000000       0.00000000       0.75000000 </v>
    <v>       0.25000000       0.25000000       0.00000000 </v>
    <v>       0.25000000       0.25000000       0.25000000 </v>
    <v>       0.25000000       0.25000000       0.50000000 </v>
    <v>       0.25000000       0.25000000       0.75000000 </v>
    <v>       0.25000000       0.50000000       0.00000000 </v>
    <v>       0.25000000       0.50000000       0.25000000 </v>
    <v>       0.25000000       0.50000000       0.50000000 </v>
    <v>       0.25000000       0.50000000       0.75000000 </v>
    <v>       0.25000000       0.75000000       0.00000000 </v>
    <v>       0.25000000       0.75000000       0.25000000 </v>
    <v>       0.25000000       0.75000000       0.50000000 </v>
    <v>       0.25000000       0.75000000       0.75000000 </v>
    <v>       0.50000000       0.00000000       0.00000000 </v>
    <v>       0.50000000       0.00000000       0.25000000 </v>
    <v>       0.50000000       0.00000000       0.50000000 </v>
    <v>       0.50000000       0.00000000       0.75000000 </v>
    <v>       0.50000000       0.25000000       0.00000000 </v>
    <v>       0.50000000       0.25000000       0.25000000 </v>
    <v>       0.50000000       0.25000000       0.50000000 </v>
    <v>       0.50000000       0.25000000       0.75000000 </v>
    <v>       0.50000000       0.50000000       0.00000000 </v>
    <v>       0.50000000       0.50000000       0.25000000 </v>
    <v>       0.50000000       0.50000000       0.50000000 </v>
    <v>       0.50000000       0.50000000       0.75000000 </v>
    <v>       0.50000000       0.75000000       0.00000000 </v>
    <v>       0.50000000       0.75000000       0.25000000 </v>
    <v>       0.50000000       0.75000000       0.50000000 </v>
    <v>       0.50000000       0.75000000       0.75000000 </v>
    <v>       0.75000000       0.00000000       0.00000000 </v>
    <v>       0.75000000       0.00000000       0.25000000 </v>
    <v>       0.75000000       0.00000000       0.50000000 </v>
    <v>       0.75000000       0.00000000       0.75000000 </v>
    <v>       0.75000000       0.25000000       0.00000000 </v>
    <v>       0.75000000       0.25000000       0.25000000 </v>
    <v>       0.75000000       0.25000000       0.50000000 </v>
    <v>       0.75000000       0.25000000       0.75000000 </v>
    <v>       0.75000000       0.50000000       0.00000000 </v>
    <v>       0.75000000       0.50000000       0.25000000 </v>
    <v>       0.75000000       0.50000000       0.50000000 </v>
    <v>       0.75000000       0.50000000       0.75000000 </v>
    <v>       0.75000000       0.75000000       0.00000000 </v>
    <v>       0.75000000       0.75000000       0.25000000 </v>
    <v>       0.75000000       0.75000000       0.50000000 </v>
    <v>       0.75000000       0.75000000       0.75000000 </v>
   </varray>
  </structure>
  <varray name="forces" >
   <v>      -0.00000000      -0.00000000      -0.00000000 </v>
   <v>      -0.00000000      -0.00000000       0.00000000 </v>
   <v>       0.00000000       0.00000000       0.00000000 </v>
   <v>       0.00000000       0.00000000      -0.00000000 </v>
   <v>      -0.00000000      -0.00000000      -0.00000000 </v>
   <v>      -0.00000000      -0.00000000       0.00000000 </v>
   <v>       0.00000000       0.00000000       0.00000000 </v>
   <v>       0.00000000       0.00000000      -0.00000000 </v>
   <v>       0.00000000      -0.00000000      -0.00000000 </v>
   <v>      -0.00000000      -0.00000000       0.00000000 </v>
   <v>       0.00000000       0.00000000       0.00000000 </v>
   <v>       0.00000000       0.00000000       0.00000000 </v>
   <v>       0.00000000       0.00000000      -0.00000000 </v>
   <v>       0.00000000      -0.00000000      -0.00000000 </v>
   <v>       0.00000000       0.00000000      -0.00000000 </v>
   <v>       0.00000000       0.00000000       0.00000000 </v>
   <v>      -0.00000000      -0.00000000      -0.00000000 </v>
   <v>      -0.00000000      -0.00000000       0.00000000 </v>
   <v>       0.00000000       0.00000000       0.00000000 </v>
   <v>       0.00000000       0.00000000      -0.00000000 </v>
   <v>       0.00000000      -0.00000000       0.00000000 </v>
   <v>      -0.00000000      -0.00000000      -0.00000000 </v>
   <v>      -0.00000000       0.00000000       0.00000000 </v>
   <v>       0.00000000       0.00000000      -0.00000000 </v>
   <v>      -0.00000000      -0.00000000       0.00000000 </v>
   <v>      -0.00000000      -0.00000000      -0.00000000 </v>
   <v>       0.00000000       0.00000000       0.00000000 </v>
   <v>       0.00000000       0.00000000       0.00000000 </v>
   <v>       0.00000000      -0.00000000       0.00000000 </v>
   <v>      -0.00000000      -0.00000000      -0.00000000 </v>
   <v>       0.00000000      -0.00000000       0.00000000 </v>
   <v>       0.00000000       0.00000000       0.00000000 </v>
   <v>      -0.00000000      -0.00000000      -0.00000000 </v>
   <v>      -0.00000000      -0.00000000      -0.00000000 </v>
   <v>      -0.00000000       0.00000000       0.00000000 </v>
   <v>      -0.00000000       0.00000000       0.00000000 </v>
   <v>      -0.00000000      -0.00000000      -0.00000000 </v>
   <v>      -0.00000000      -0.00000000      -0.00000000 </v>
   <v>       0.00000000       0.00000000      -0.00000000 </v>
   <v>       0.00000000       0.00000000      -0.00000000 </v>
   <v>      -0.00000000      -0.00000000      -0.00000000 </v>
   <v>      -0.00000000      -0.00000000      -0.00000000 </v>
   <v>       0.00000000       0.00000000       0.00000000 </v>
   <v>       0.00000000       0.00000000       0.00000000 </v>
   <v>      -0.00000000      -0.00000000      -0.00000000 </v>
   <v>       0.00000000      -0.00000000      -0.00000000 </v>
   <v>       0.00000000       0.00000000      -0.00000000 </v>
   <v>       0.00000000       0.00000000       0.00000000 </v>
   <v>      -0.00000000      -0.00000000      -0.00000000 </v>
   <v>      -0.00000000      -0.00000000       0.00000000 </v>
   <v>       0.00000000       0.00000000       0.00000000 </v>
   <v>       0.00000000       0.00000000      -0.00000000 </v>
   <v>      -0.00000000      -0.00000000      -0.00000000 </v>
   <v>      -0.00000000      -0.00000000      -0.00000000 </v>
   <v>       0.00000000       0.00000000       0.00000000 </v>
   <v>       0.00000000       0.00000000       0.00000000 </v>
   <v>      -0.00000000      -0.00000000      -0.00000000 </v>
   <v>      -0.00000000      -0.00000000      -0.00000000 </v>
   <v>       0.00000000       0.00000000       0.00000000 </v>
   <v>       0.00000000       0.00000000       0.00000000 </v>
   <v>      -0.00000000       0.00000000      -0.00000000 </v>
   <v>      -0.00000000       0.00000000      -0.00000000 </v>
   <v>       0.00000000      -0.00000000       0.00000000 </v>
   <v>       0.00000000       0.00000000       0.00000000 </v>
  </varray>
  <varray name="stress" >
   <v>    -152.04625973      -0.00000000       0.00000000 </v>
   <v>       0.00000000    -152.04625973      -0.00000000 </v>
   <v>       0.00000000       0.00000000    -152.04625973 </v>
  </varray>
  <energy>
   <i name="e_fr_energy">   -368.29116206 </i>
   <i name="e_wo_entrp">   -368.26060102 </i>
   <i name="e_0_energy">     -0.09168311 </i>
  </energy>
  <kpoints>
   <generation param="Gamma">
    <v type="int" name="divisions">       3        3        3 </v>
    <v name="usershift">      0.00000000       0.00000000       0.00000000 </v>
    <v name="genvec1">      0.33333333       0.00000000       0.00000000 </v>
    <v name="genvec2">      0.00000000       0.33333333       0.00000000 </v>
    <v name="genvec3">      0.00000000       0.00000000       0.33333333 </v>
    <v name="shift">      0.00000000       0.00000000       0.00000000 </v>
   </generation>
   <varray name="kpointlist" >
    <v>       0.00000000       0.00000000       0.00000000 </v>
    <v>       0.33333333       0.00000000       0.00000000 </v>
    <v>       0.33333333       0.33333333       0.00000000 </v>
    <v>      -0.33333333       0.33333333       0.00000000 </v>
    <v>       0.00000000       0.33333333       0.33333333 </v>
    <v>      -0.33333333       0.33333333       0.33333333 </v>
   </varray>
   <varray name="weights" >
    <v>       0.03703704 </v>
    <v>       0.29629630 </v>
    <v>       0.14814815 </v>
    <v>       0.29629630 </v>
    <v>       0.07407407 </v>
    <v>       0.14814815 </v>
   </varray>
  </kpoints>
  <time name="totalsc"> 6796.19 6790.92</time>
 </calculation>
 <calculation>
  <scstep>
   <time name="dav">  721.56  720.96</time>
   <time name="total">  748.28  747.66</time>
   <energy>
    <i name="alphaZ">   9846.09864404 </i>
    <i name="ewald">-153430.42134966 </i>
    <i name="hartreedc"> -59479.91172925 </i>
    <i name="XCdc">   5628.33206030 </i>
    <i name="pawpsdc"> 172130.40343621 </i>
    <i name="pawaedc">-181181.35525578 </i>
    <i name="eentropy">     -0.09150863 </i>
    <i name="bandstr"> -17894.31009190 </i>
    <i name="atom"> 224013.29143063 </i>
    <i name="e_fr_energy">   -367.96436406 </i>
    <i name="e_wo_entrp">   -367.87285542 </i>
    <i name="e_0_energy">   -367.93386118 </i>
   </energy>
  </scstep>
  <scstep>
   <time name="dav">  597.97  597.48</time>
   <time name="total">  627.59  627.07</time>
   <energy>
    <i name="e_fr_energy">   -368.30134087 </i>
    <i name="e_wo_entrp">   -368.20967972 </i>
    <i name="e_0_energy">   -368.27078715 </i>
   </energy>
  </scstep>
  <scstep>
   <time name="dav">  687.46  686.89</time>
   <time name="total">  717.07  716.48</time>
   <energy>
    <i name="e_fr_energy">   -368.29143495 </i>
    <i name="e_wo_entrp">   -368.19941571 </i>
    <i name="e_0_energy">   -368.26076187 </i>
   </energy>
  </scstep>
  <scstep>
   <time name="dav">  681.13  680.56</time>
   <time name="total">  710.75  710.17</time>
   <energy>
    <i name="e_fr_energy">   -368.29663815 </i>
    <i name="e_wo_entrp">   -368.20475697 </i>
    <i name="e_0_energy">   -368.26601109 </i>
   </energy>
  </scstep>
  <scstep>
   <time name="dav">  616.82  616.31</time>
   <time name="total">  646.42  645.88</time>
   <energy>
    <i name="e_fr_energy">   -368.28795491 </i>
    <i name="e_wo_entrp">   -368.19623125 </i>
    <i name="e_0_energy">   -368.25738035 </i>
   </energy>
  </scstep>
  <scstep>
   <time name="dav">  682.29  681.72</time>
   <time name="total">  711.91  711.32</time>
   <energy>
    <i name="e_fr_energy">   -368.28777312 </i>
    <i name="e_wo_entrp">   -368.19606619 </i>
    <i name="e_0_energy">   -368.25720414 </i>
   </energy>
  </scstep>
  <scstep>
   <time name="dav">  627.79  627.27</time>
   <time name="total">  654.48  653.94</time>
   <energy>
    <i name="e_fr_energy">   -368.28761374 </i>
    <i name="e_wo_entrp">   -368.19594083 </i>
    <i name="e_0_energy">   -368.25705610 </i>
   </energy>
  </scstep>
  <scstep>
   <time name="dav">  629.89  629.37</time>
   <time name="total">  656.58  656.04</time>
   <energy>
    <i name="e_fr_energy">   -368.28747489 </i>
    <i name="e_wo_entrp">   -368.19582878 </i>
    <i name="e_0_energy">   -368.25692619 </i>
   </energy>
  </scstep>
  <scstep>
   <time name="dav">  633.95  633.42</time>
   <time name="total">  660.64  660.09</time>
   <energy>
    <i name="e_fr_energy">   -368.28755283 </i>
    <i name="e_wo_entrp">   -368.19593122 </i>
    <i name="e_0_energy">   -368.25701229 </i>
   </energy>
  </scstep>
  <scstep>
   <time name="dav">  715.45  714.86</time>
   <time name="total">  742.14  741.53</time>
   <energy>
    <i name="e_fr_energy">   -368.28716142 </i>
    <i name="e_wo_entrp">   -368.19558166 </i>
    <i name="e_0_energy">   -368.25663484 </i>
   </energy>
  </scstep>
  <scstep>
   <time name="dav">  714.88  714.29</time>
   <time name="total">  741.58  740.97</time>
   <energy>
    <i name="e_fr_energy">   -368.28710892 </i>
    <i name="e_wo_entrp">   -368.19552514 </i>
    <i name="e_0_energy">   -368.25658099 </i>
   </energy>
  </scstep>
  <scstep>
   <time name="dav">  703.37  702.79</time>
   <time name="total">  730.12  729.52</time>
   <energy>
    <i name="e_fr_energy">   -368.28712203 </i>
    <i name="e_wo_entrp">   -368.19553371 </i>
    <i name="e_0_energy">   -368.25659259 </i>
   </energy>
  </scstep>
  <scstep>
   <time name="dav">  613.42  612.92</time>
   <time name="total">  640.18  639.65</time>
   <energy>
    <i name="e_fr_energy">   -368.28710892 </i>
    <i name="e_wo_entrp">   -368.19551545 </i>
    <i name="e_0_energy">   -368.25657776 </i>
   </energy>
  </scstep>
  <scstep>
   <time name="dav">  600.59  600.10</time>
   <time name="total">  627.36  626.85</time>
   <energy>
    <i name="e_fr_energy">   -368.28711239 </i>
    <i name="e_wo_entrp">   -368.19551157 </i>
    <i name="e_0_energy">   -368.25657878 </i>
   </energy>
  </scstep>
  <scstep>
   <time name="dav">  454.76  454.39</time>
   <time name="total">  481.53  481.14</time>
   <energy>
    <i name="e_fr_energy">   -368.28710922 </i>
    <i name="e_wo_entrp">   -368.19550007 </i>
    <i name="e_0_energy">   -368.25657284 </i>
   </energy>
  </scstep>
  <scstep>
   <time name="dav">  366.13  365.83</time>
   <time name="total">  368.61  368.31</time>
   <energy>
    <i name="alphaZ">   9846.09864404 </i>
    <i name="ewald">-153430.42134966 </i>
    <i name="hartreedc"> -59479.87152220 </i>
    <i name="XCdc">   5628.32961202 </i>
    <i name="pawpsdc"> 172130.47041975 </i>
    <i name="pawaedc">-181181.42426351 </i>
    <i name="eentropy">     -0.09160967 </i>
    <i name="bandstr"> -17894.66847104 </i>
    <i name="atom"> 224013.29143063 </i>
    <i name="e_fr_energy">   -368.28710963 </i>
    <i name="e_wo_entrp">   -368.19549996 </i>
    <i name="e_0_energy">   -368.25657307 </i>
   </energy>
  </scstep>
  <structure>
   <crystal>
    <varray name="basis" >
     <v>       0.00000000       7.05000000       7.05000000 </v>
     <v>       7.05000000       0.00000000       7.05000000 </v>
     <v>       7.05000000       7.05000000       0.00000000 </v>
    </varray>
    <i name="volume">    700.80525000 </i>
    <varray name="rec_basis" >
     <v>      -0.07092199       0.07092199       0.07092199 </v>
     <v>       0.07092199      -0.07092199       0.07092199 </v>
     <v>       0.07092199       0.07092199      -0.07092199 </v>
    </varray>
   </crystal>
   <varray name="positions" >
    <v>      -0.00212766       0.00212766       0.00212766 </v>
    <v>       0.00000000       0.00000000       0.25000000 </v>
    <v>       0.00000000       0.00000000       0.50000000 </v>
    <v>       0.00000000       0.00000000       0.75000000 </v>
    <v>       0.00000000       0.25000000       0.00000000 </v>
    <v>       0.00000000       0.25000000       0.25000000 </v>
    <v>       0.00000000       0.25000000       0.50000000 </v>
    <v>       0.00000000       0.25000000       0.75000000 </v>
    <v>       0.00000000       0.50000000       0.00000000 </v>
    <v>       0.00000000       0.50000000       0.25000000 </v>
    <v>       0.00000000       0.50000000       0.50000000 </v>
    <v>       0.00000000       0.50000000       0.75000000 </v>
    <v>       0.00000000       0.75000000       0.00000000 </v>
    <v>       0.00000000       0.75000000       0.25000000 </v>
    <v>       0.00000000       0.75000000       0.50000000 </v>
    <v>       0.00000000       0.75000000       0.75000000 </v>
    <v>       0.25000000       0.00000000       0.00000000 </v>
    <v>       0.25000000       0.00000000       0.25000000 </v>
    <v>       0.25000000       0.00000000       0.50000000 </v>
    <v>       0.25000000       0.00000000       0.75000000 </v>
    <v>       0.25000000       0.25000000       0.00000000 </v>
    <v>       0.25000000       0.25000000       0.25000000 </v>
    <v>       0.25000000       0.25000000       0.50000000 </v>
    <v>       0.25000000       0.25000000       0.75000000 </v>
    <v>       0.25000000       0.50000000       0.00000000 </v>
    <v>       0.25000000       0.50000000       0.25000000 </v>
    <v>       0.25000000       0.50000000       0.50000000 </v>
    <v>       0.25000000       0.50000000       0.75000000 </v>
    <v>       0.25000000       0.75000000       0.00000000 </v>
    <v>       0.25000000       0.75000000       0.25000000 </v>
    <v>       0.25000000       0.75000000       0.50000000 </v>
    <v>       0.25000000       0.75000000       0.75000000 </v>
    <v>       0.50000000       0.00000000       0.00000000 </v>
    <v>       0.50000000       0.00000000       0.25000000 </v>
    <v>       0.50000000       0.00000000       0.50000000 </v>
    <v>       0.50000000       0.00000000       0.75000000 </v>
    <v>       0.50000000       0.25000000       0.00000000 </v>
    <v>       0.50000000       0.25000000       0.25000000 </v>
    <v>       0.50000000       0.25000000       0.50000000 </v>
    <v>       0.50000000       0.25000000       0.75000000 </v>
    <v>       0.50000000       0.50000000       0.00000000 </v>
    <v>       0.50000000       0.50000000       0.25000000 </v>
    <v>       0.50000000       0.50000000       0.50000000 </v>
    <v>       0.50000000       0.50000000       0.75000000 </v>
    <v>       0.50000000       0.75000000       0.00000000 </v>
    <v>       0.50000000       0.75000000       0.25000000 </v>
    <v>       0.50000000       0.75000000       0.50000000 </v>
    <v>       0.50000000       0.75000000       0.75000000 </v>
    <v>       0.75000000       0.00000000       0.00000000 </v>
    <v>       0.75000000       0.00000000       0.25000000 </v>
    <v>       0.75000000       0.00000000       0.50000000 </v>
    <v>       0.75000000       0.00000000       0.75000000 </v>
    <v>       0.75000000       0.25000000       0.00000000 </v>
    <v>       0.75000000       0.25000000       0.25000000 </v>
    <v>       0.75000000       0.25000000       0.50000000 </v>
    <v>       0.75000000       0.25000000       0.75000000 </v>
    <v>       0.75000000       0.50000000       0.00000000 </v>
    <v>       0.75000000       0.50000000       0.25000000 </v>
    <v>       0.75000000       0.50000000       0.50000000 </v>
    <v>       0.75000000       0.50000000       0.75000000 </v>
    <v>       0.75000000       0.75000000       0.00000000 </v>
    <v>       0.75000000       0.75000000       0.25000000 </v>
    <v>       0.75000000       0.75000000       0.50000000 </v>
    <v>       0.75000000       0.75000000       0.75000000 </v>
   </varray>
  </structure>
  <varray name="forces" >
   <v>      -0.27078892       0.00000000       0.00000000 </v>
   <v>       0.03311450       0.03796184       0.00000000 </v>
   <v>       0.00020887       0.00002085       0.00000000 </v>
   <v>       0.03013694       0.03389938       0.00000000 </v>
   <v>       0.03311450       0.00000000       0.03796184 </v>
   <v>       0.00224803       0.00146108       0.00146108 </v>
   <v>       0.00031013       0.00139337      -0.00060756 </v>
   <v>      -0.00138394       0.00039023      -0.00039023 </v>
   <v>       0.00020887       0.00000000       0.00002085 </v>
   <v>       0.00031013      -0.00060756       0.00139337 </v>
   <v>      -0.00019700       0.00000000       0.00000000 </v>
   <v>       0.00039038      -0.00068246       0.00144855 </v>
   <v>       0.03013694       0.00000000       0.03389938 </v>
   <v>      -0.00138394      -0.00039023       0.00039023 </v>
   <v>       0.00039038       0.00144855      -0.00068246 </v>
   <v>       0.00216122       0.00135185       0.00135185 </v>
   <v>      -0.00138394      -0.00039023      -0.00039023 </v>
   <v>       0.00039038       0.00144855       0.00068246 </v>
   <v>       0.00216122       0.00135185      -0.00135185 </v>
   <v>       0.03013694       0.00000000      -0.03389938 </v>
   <v>       0.00039038       0.00068246       0.00144855 </v>
   <v>       0.00064617       0.00000000       0.00000000 </v>
   <v>       0.00031013       0.00060756      -0.00139337 </v>
   <v>      -0.00154862       0.00000000       0.00001580 </v>
   <v>       0.00216122      -0.00135185       0.00135185 </v>
   <v>       0.00031013      -0.00139337       0.00060756 </v>
   <v>      -0.00079231      -0.00002524      -0.00002524 </v>
   <v>       0.00017040       0.00000000      -0.00014687 </v>
   <v>       0.03013694      -0.03389938       0.00000000 </v>
   <v>      -0.00154862       0.00001580       0.00000000 </v>
   <v>       0.00017040      -0.00014687       0.00000000 </v>
   <v>       0.00417398       0.00000000       0.00000000 </v>
   <v>      -0.00019700       0.00000000       0.00000000 </v>
   <v>       0.00039038      -0.00068246      -0.00144855 </v>
   <v>       0.00020887       0.00000000      -0.00002085 </v>
   <v>       0.00031013      -0.00060756      -0.00139337 </v>
   <v>       0.00039038      -0.00144855      -0.00068246 </v>
   <v>       0.00224803      -0.00146108      -0.00146108 </v>
   <v>       0.00007995       0.00000000       0.00006300 </v>
   <v>      -0.00079231       0.00002524      -0.00002524 </v>
   <v>       0.00020887      -0.00002085       0.00000000 </v>
   <v>       0.00007995       0.00006300       0.00000000 </v>
   <v>      -0.00161563       0.00000000       0.00000000 </v>
   <v>       0.00017040       0.00014687       0.00000000 </v>
   <v>       0.00031013      -0.00139337      -0.00060756 </v>
   <v>      -0.00079231      -0.00002524       0.00002524 </v>
   <v>       0.00017040       0.00000000       0.00014687 </v>
   <v>       0.00216122      -0.00135185      -0.00135185 </v>
   <v>      -0.00138394       0.00039023       0.00039023 </v>
   <v>       0.03311450       0.00000000      -0.03796184 </v>
   <v>       0.00224803       0.00146108      -0.00146108 </v>
   <v>       0.00031013       0.00139337       0.00060756 </v>
   <v>       0.03311450      -0.03796184       0.00000000 </v>
   <v>       0.00414794       0.00000000       0.00000000 </v>
   <v>       0.00007995      -0.00006300       0.00000000 </v>
   <v>      -0.00154862      -0.00001580       0.00000000 </v>
   <v>       0.00224803      -0.00146108       0.00146108 </v>
   <v>       0.00007995       0.00000000      -0.00006300 </v>
   <v>      -0.00079231       0.00002524       0.00002524 </v>
   <v>       0.00039038      -0.00144855       0.00068246 </v>
   <v>       0.00031013       0.00060756       0.00139337 </v>
   <v>      -0.00154862       0.00000000      -0.00001580 </v>
   <v>       0.00039038       0.00068246      -0.00144855 </v>
   <v>       0.00064617       0.00000000       0.00000000 </v>
  </varray>
  <varray name="stress" >
   <v>    -151.98489776       0.00000000       0.00000000 </v>
   <v>      -0.00000000    -151.98446995       0.00000000 </v>
   <v>       0.00000000       0.00000000    -151.98446995 </v>
  </varray>
  <energy>
   <i name="e_fr_energy">   -368.28710963 </i>
   <i name="e_wo_entrp">   -368.25657307 </i>
   <i name="e_0_energy">     -0.09160967 </i>
  </energy>
  <kpoints>
   <generation param="Gamma">
    <v type="int" name="divisions">       3        3        3 </v>
    <v name="usershift">      0.00000000       0.00000000       0.00000000 </v>
    <v name="genvec1">      0.33333333       0.00000000       0.00000000 </v>
    <v name="genvec2">      0.00000000       0.33333333       0.00000000 </v>
    <v name="genvec3">      0.00000000       0.00000000       0.33333333 </v>
    <v name="shift">      0.00000000       0.00000000       0.00000000 </v>
   </generation>
   <varray name="kpointlist" >
    <v>       0.00000000       0.00000000       0.00000000 </v>
    <v>       0.33333333       0.00000000       0.00000000 </v>
    <v>       0.33333333       0.33333333       0.00000000 </v>
    <v>      -0.33333333       0.33333333       0.00000000 </v>
    <v>       0.00000000       0.33333333       0.33333333 </v>
    <v>      -0.33333333       0.33333333       0.33333333 </v>
   </varray>
   <varray name="weights" >
    <v>       0.03703704 </v>
    <v>       0.29629630 </v>
    <v>       0.14814815 </v>
    <v>       0.29629630 </v>
    <v>       0.07407407 </v>
    <v>       0.14814815 </v>
   </varray>
  </kpoints>
  <time name="totalsc">11173.1011163.90</time>
 </calculation>
 <calculation>
  <scstep>
   <time name="dav">  725.61  725.01</time>
   <time name="total">  754.86  754.25</time>
   <energy>
    <i name="alphaZ">   9846.09864404 </i>
    <i name="ewald">-153430.88980213 </i>
    <i name="hartreedc"> -59479.44547815 </i>
    <i name="XCdc">   5628.32911530 </i>
    <i name="pawpsdc"> 172130.47644782 </i>
    <i name="pawaedc">-181181.43140031 </i>
    <i name="eentropy">     -0.09161648 </i>
    <i name="bandstr"> -17894.48122083 </i>
    <i name="atom"> 224013.29143063 </i>
    <i name="e_fr_energy">   -368.14388011 </i>
    <i name="e_wo_entrp">   -368.05226364 </i>
    <i name="e_0_energy">   -368.11334129 </i>
   </energy>
  </scstep>
  <scstep>
   <time name="dav">  589.52  589.04</time>
   <time name="total">  619.11  618.60</time>
   <energy>
    <i name="e_fr_energy">   -368.29022256 </i>
    <i name="e_wo_entrp">   -368.19843362 </i>
    <i name="e_0_energy">   -368.25962625 </i>
   </energy>
  </scstep>
  <scstep>
   <time name="dav">  690.26  689.69</time>
   <time name="total">  719.88  719.29</time>
   <energy>
    <i name="e_fr_energy">   -368.29019780 </i>
    <i name="e_wo_entrp">   -368.19845454 </i>
    <i name="e_0_energy">   -368.25961671 </i>
   </energy>
  </scstep>
  <scstep>
   <time name="dav">  693.34  692.76</time>
   <time name="total">  722.93  722.33</time>
   <energy>
    <i name="e_fr_energy">   -368.29141796 </i>
    <i name="e_wo_entrp">   -368.19968397 </i>
    <i name="e_0_energy">   -368.26083996 </i>
   </energy>
  </scstep>
  <scstep>
   <time name="dav">  615.54  615.03</time>
   <time name="total">  645.15  644.62</time>
   <energy>
    <i name="e_fr_energy">   -368.29023279 </i>
    <i name="e_wo_entrp">   -368.19854964 </i>
    <i name="e_0_energy">   -368.25967174 </i>
   </energy>
  </scstep>
  <scstep>
   <time name="dav">  667.19  666.64</time>
   <time name="total">  696.82  696.24</time>
   <energy>
    <i name="e_fr_energy">   -368.29019887 </i>
    <i name="e_wo_entrp">   -368.19852139 </i>
    <i name="e_0_energy">   -368.25963971 </i>
   </energy>
  </scstep>
  <scstep>
   <time name="dav">  642.19  641.66</time>
   <time name="total">  671.60  671.05</time>
   <energy>
    <i name="e_fr_energy">   -368.29018342 </i>
    <i name="e_wo_entrp">   -368.19851486 </i>
    <i name="e_0_energy">   -368.25962724 </i>
   </energy>
  </scstep>
  <scstep>
   <time name="dav">  636.86  636.33</time>
   <time name="total">  666.26  665.71</time>
   <energy>
    <i name="e_fr_energy">   -368.29016101 </i>
    <i name="e_wo_entrp">   -368.19850049 </i>
    <i name="e_0_energy">   -368.25960750 </i>
   </energy>
  </scstep>
  <scstep>
   <time name="dav">  647.90  647.36</time>
   <time name="total">  677.31  676.75</time>
   <energy>
    <i name="e_fr_energy">   -368.29020385 </i>
    <i name="e_wo_entrp">   -368.19855153 </i>
    <i name="e_0_energy">   -368.25965308 </i>
   </energy>
  </scstep>
  <scstep>
   <time name="dav">  654.50  653.96</time>
   <time name="total">  683.93  683.36</time>
   <energy>
    <i name="e_fr_energy">   -368.29013960 </i>
    <i name="e_wo_entrp">   -368.19849051 </i>
    <i name="e_0_energy">   -368.25958990 </i>
   </energy>
  </scstep>
  <scstep>
   <time name="dav">  713.32  712.73</time>
   <time name="total">  742.76  742.15</time>
   <energy>
    <i name="e_fr_energy">   -368.29013395 </i>
    <i name="e_wo_entrp">   -368.19848697 </i>
    <i name="e_0_energy">   -368.25958496 </i>
   </energy>
  </scstep>
  <scstep>
   <time name="dav">  572.43  571.96</time>
   <time name="total">  599.21  598.71</time>
   <energy>
    <i name="e_fr_energy">   -368.29013533 </i>
    <i name="e_wo_entrp">   -368.19848927 </i>
    <i name="e_0_energy">   -368.25958665 </i>
   </energy>
  </scstep>
  <scstep>
   <time name="dav">  427.00  426.65</time>
   <time name="total">  453.80  453.42</time>
   <energy>
    <i name="e_fr_energy">   -368.29013381 </i>
    <i name="e_wo_entrp">   -368.19848911 </i>
    <i name="e_0_energy">   -368.25958558 </i>
   </energy>
  </scstep>
  <scstep>
   <time name="dav">  366.49  366.18</time>
   <time name="total">  368.97  368.66</time>
   <energy>
    <i name="alphaZ">   9846.09864404 </i>
    <i name="ewald">-153430.88980213 </i>
    <i name="hartreedc"> -59479.42428830 </i>
    <i name="XCdc">   5628.32830917 </i>
    <i name="pawpsdc"> 172130.31014360 </i>
    <i name="pawaedc">-181181.26355228 </i>
    <i name="eentropy">     -0.09164653 </i>
    <i name="bandstr"> -17894.64937226 </i>
    <i name="atom"> 224013.29143063 </i>
    <i name="e_fr_energy">   -368.29013406 </i>
    <i name="e_wo_entrp">   -368.19848754 </i>
    <i name="e_0_energy">   -368.25958522 </i>
   </energy>
  </scstep>
  <structure>
   <crystal>
    <varray name="basis" >
     <v>       0.00000000       7.05000000       7.05000000 </v>
     <v>       7.05000000       0.00000000       7.05000000 </v>
     <v>       7.05000000       7.05000000       0.00000000 </v>
    </varray>
    <i name="volume">    700.80525000 </i>
    <varray name="rec_basis" >
     <v>      -0.07092199       0.07092199       0.07092199 </v>
     <v>       0.07092199      -0.07092199       0.07092199 </v>
     <v>       0.07092199       0.07092199      -0.07092199 </v>
    </varray>
   </crystal>
   <varray name="positions" >
    <v>      -0.00106383       0.00106383       0.00106383 </v>
    <v>       0.00000000       0.00000000       0.25000000 </v>
    <v>       0.00000000       0.00000000       0.50000000 </v>
    <v>       0.00000000       0.00000000       0.75000000 </v>
    <v>       0.00000000       0.25000000       0.00000000 </v>
    <v>       0.00000000       0.25000000       0.25000000 </v>
    <v>       0.00000000       0.25000000       0.50000000 </v>
    <v>       0.00000000       0.25000000       0.75000000 </v>
    <v>       0.00000000       0.50000000       0.00000000 </v>
    <v>       0.00000000       0.50000000       0.25000000 </v>
    <v>       0.00000000       0.50000000       0.50000000 </v>
    <v>       0.00000000       0.50000000       0.75000000 </v>
    <v>       0.00000000       0.75000000       0.00000000 </v>
    <v>       0.00000000       0.75000000       0.25000000 </v>
    <v>       0.00000000       0.75000000       0.50000000 </v>
    <v>       0.00000000       0.75000000       0.75000000 </v>
    <v>       0.25000000       0.00000000       0.00000000 </v>
    <v>       0.25000000       0.00000000       0.25000000 </v>
    <v>       0.25000000       0.00000000       0.50000000 </v>
    <v>       0.25000000       0.00000000       0.75000000 </v>
    <v>       0.25000000       0.25000000       0.00000000 </v>
    <v>       0.25000000       0.25000000       0.25000000 </v>
    <v>       0.25000000       0.25000000       0.50000000 </v>
    <v>       0.25000000       0.25000000       0.75000000 </v>
    <v>       0.25000000       0.50000000       0.00000000 </v>
    <v>       0.25000000       0.50000000       0.25000000 </v>
    <v>       0.25000000       0.50000000       0.50000000 </v>
    <v>       0.25000000       0.50000000       0.75000000 </v>
    <v>       0.25000000       0.75000000       0.00000000 </v>
    <v>       0.25000000       0.75000000       0.25000000 </v>
    <v>       0.25000000       0.75000000       0.50000000 </v>
    <v>       0.25000000       0.75000000       0.75000000 </v>
    <v>       0.50000000       0.00000000       0.00000000 </v>
    <v>       0.50000000       0.00000000       0.25000000 </v>
    <v>       0.50000000       0.00000000       0.50000000 </v>
    <v>       0.50000000       0.00000000       0.75000000 </v>
    <v>       0.50000000       0.25000000       0.00000000 </v>
    <v>       0.50000000       0.25000000       0.25000000 </v>
    <v>       0.50000000       0.25000000       0.50000000 </v>
    <v>       0.50000000       0.25000000       0.75000000 </v>
    <v>       0.50000000       0.50000000       0.00000000 </v>
    <v>       0.50000000       0.50000000       0.25000000 </v>
    <v>       0.50000000       0.50000000       0.50000000 </v>
    <v>       0.50000000       0.50000000       0.75000000 </v>
    <v>       0.50000000       0.75000000       0.00000000 </v>
    <v>       0.50000000       0.75000000       0.25000000 </v>
    <v>       0.50000000       0.75000000       0.50000000 </v>
    <v>       0.50000000       0.75000000       0.75000000 </v>
    <v>       0.75000000       0.00000000       0.00000000 </v>
    <v>       0.75000000       0.00000000       0.25000000 </v>
    <v>       0.75000000       0.00000000       0.50000000 </v>
    <v>       0.75000000       0.00000000       0.75000000 </v>
    <v>       0.75000000       0.25000000       0.00000000 </v>
    <v>       0.75000000       0.25000000       0.25000000 </v>
    <v>       0.75000000       0.25000000       0.50000000 </v>
    <v>       0.75000000       0.25000000       0.75000000 </v>
    <v>       0.75000000       0.50000000       0.00000000 </v>
    <v>       0.75000000       0.50000000       0.25000000 </v>
    <v>       0.75000000       0.50000000       0.50000000 </v>
    <v>       0.75000000       0.50000000       0.75000000 </v>
    <v>       0.75000000       0.75000000       0.00000000 </v>
    <v>       0.75000000       0.75000000       0.25000000 </v>
    <v>       0.75000000       0.75000000       0.50000000 </v>
    <v>       0.75000000       0.75000000       0.75000000 </v>
   </varray>
  </structure>
  <varray name="forces" >
   <v>      -0.13404432       0.00000000       0.00000000 </v>
   <v>       0.01593579       0.01812243       0.00000000 </v>
   <v>       0.00003315       0.00016797       0.00000000 </v>
   <v>       0.01535271       0.01725153       0.00000000 </v>
   <v>       0.01593579       0.00000000       0.01812243 </v>
   <v>       0.00105174       0.00080277       0.00080277 </v>
   <v>       0.00015134       0.00074060      -0.00033245 </v>
   <v>      -0.00042282       0.00017150      -0.00017150 </v>
   <v>       0.00003315       0.00000000       0.00016797 </v>
   <v>       0.00015134      -0.00033245       0.00074060 </v>
   <v>       0.00001966       0.00000000       0.00000000 </v>
   <v>       0.00016410      -0.00037845       0.00080516 </v>
   <v>       0.01535271       0.00000000       0.01725153 </v>
   <v>      -0.00042282      -0.00017150       0.00017150 </v>
   <v>       0.00016410       0.00080516      -0.00037845 </v>
   <v>       0.00096893       0.00074587       0.00074587 </v>
   <v>      -0.00042282      -0.00017150      -0.00017150 </v>
   <v>       0.00016410       0.00080516       0.00037845 </v>
   <v>       0.00096893       0.00074587      -0.00074587 </v>
   <v>       0.01535271       0.00000000      -0.01725153 </v>
   <v>       0.00016410       0.00037845       0.00080516 </v>
   <v>       0.00012061       0.00000000       0.00000000 </v>
   <v>       0.00015134       0.00033245      -0.00074060 </v>
   <v>      -0.00068044       0.00000000       0.00002742 </v>
   <v>       0.00096893      -0.00074587       0.00074587 </v>
   <v>       0.00015134      -0.00074060       0.00033245 </v>
   <v>      -0.00029893      -0.00003244      -0.00003244 </v>
   <v>       0.00009678       0.00000000      -0.00010386 </v>
   <v>       0.01535271      -0.01725153       0.00000000 </v>
   <v>      -0.00068044       0.00002742       0.00000000 </v>
   <v>       0.00009678      -0.00010386       0.00000000 </v>
   <v>       0.00181908       0.00000000       0.00000000 </v>
   <v>       0.00001966       0.00000000       0.00000000 </v>
   <v>       0.00016410      -0.00037845      -0.00080516 </v>
   <v>       0.00003315       0.00000000      -0.00016797 </v>
   <v>       0.00015134      -0.00033245      -0.00074060 </v>
   <v>       0.00016410      -0.00080516      -0.00037845 </v>
   <v>       0.00105174      -0.00080277      -0.00080277 </v>
   <v>       0.00004336       0.00000000       0.00003579 </v>
   <v>      -0.00029893       0.00003244      -0.00003244 </v>
   <v>       0.00003315      -0.00016797       0.00000000 </v>
   <v>       0.00004336       0.00003579       0.00000000 </v>
   <v>      -0.00075898       0.00000000       0.00000000 </v>
   <v>       0.00009678       0.00010386       0.00000000 </v>
   <v>       0.00015134      -0.00074060      -0.00033245 </v>
   <v>      -0.00029893      -0.00003244       0.00003244 </v>
   <v>       0.00009678       0.00000000       0.00010386 </v>
   <v>       0.00096893      -0.00074587      -0.00074587 </v>
   <v>      -0.00042282       0.00017150       0.00017150 </v>
   <v>       0.01593579       0.00000000      -0.01812243 </v>
   <v>       0.00105174       0.00080277      -0.00080277 </v>
   <v>       0.00015134       0.00074060       0.00033245 </v>
   <v>       0.01593579      -0.01812243       0.00000000 </v>
   <v>       0.00185902       0.00000000       0.00000000 </v>
   <v>       0.00004336      -0.00003579       0.00000000 </v>
   <v>      -0.00068044      -0.00002742       0.00000000 </v>
   <v>       0.00105174      -0.00080277       0.00080277 </v>
   <v>       0.00004336       0.00000000      -0.00003579 </v>
   <v>      -0.00029893       0.00003244       0.00003244 </v>
   <v>       0.00016410      -0.00080516       0.00037845 </v>
   <v>       0.00015134       0.00033245       0.00074060 </v>
   <v>      -0.00068044       0.00000000      -0.00002742 </v>
   <v>       0.00016410       0.00037845      -0.00080516 </v>
   <v>       0.00012061       0.00000000       0.00000000 </v>
  </varray>
  <varray name="stress" >
   <v>    -152.07257947       0.00000000       0.00000000 </v>
   <v>       0.00000000    -152.06565873       0.00000000 </v>
   <v>      -0.00000000       0.00000000    -152.06565873 </v>
  </varray>
  <energy>
   <i name="e_fr_energy">   -368.29013406 </i>
   <i name="e_wo_entrp">   -368.25958522 </i>
   <i name="e_0_energy">     -0.09164653 </i>
  </energy>
  <kpoints>
   <generation param="Gamma">
    <v type="int" name="divisions">       3        3        3 </v>
    <v name="usershift">      0.00000000       0.00000000       0.00000000 </v>
    <v name="genvec1">      0.33333333       0.00000000       0.00000000 </v>
    <v name="genvec2">      0.00000000       0.33333333       0.00000000 </v>
    <v name="genvec3">      0.00000000       0.00000000       0.33333333 </v>
    <v name="shift">      0.00000000       0.00000000       0.00000000 </v>
   </generation>
   <varray name="kpointlist" >
    <v>       0.00000000       0.00000000       0.00000000 </v>
    <v>       0.33333333       0.00000000       0.00000000 </v>
    <v>       0.33333333       0.33333333       0.00000000 </v>
    <v>      -0.33333333       0.33333333       0.00000000 </v>
    <v>       0.00000000       0.33333333       0.33333333 </v>
    <v>      -0.33333333       0.33333333       0.33333333 </v>
   </varray>
   <varray name="weights" >
    <v>       0.03703704 </v>
    <v>       0.29629630 </v>
    <v>       0.14814815 </v>
    <v>       0.29629630 </v>
    <v>       0.07407407 </v>
    <v>       0.14814815 </v>
   </varray>
  </kpoints>
  <time name="totalsc"> 9729.57 9721.53</time>
 </calculation>
 <calculation>
  <scstep>
   <time name="dav">  723.16  722.56</time>
   <time name="total">  749.87  749.25</time>
   <energy>
    <i name="alphaZ">   9846.09864404 </i>
    <i name="ewald">-153430.88980213 </i>
    <i name="hartreedc"> -59479.46531257 </i>
    <i name="XCdc">   5628.33054485 </i>
    <i name="pawpsdc"> 172130.28965100 </i>
    <i name="pawaedc">-181181.24199038 </i>
    <i name="eentropy">     -0.09161403 </i>
    <i name="bandstr"> -17894.32059994 </i>
    <i name="atom"> 224013.29143063 </i>
    <i name="e_fr_energy">   -367.99904853 </i>
    <i name="e_wo_entrp">   -367.90743450 </i>
    <i name="e_0_energy">   -367.96851052 </i>
   </energy>
  </scstep>
  <scstep>
   <time name="dav">  596.19  595.70</time>
   <time name="total">  625.75  625.24</time>
   <energy>
    <i name="e_fr_energy">   -368.30096718 </i>
    <i name="e_wo_entrp">   -368.20920556 </i>
    <i name="e_0_energy">   -368.27037998 </i>
   </energy>
  </scstep>
  <scstep>
   <time name="dav">  671.16  670.61</time>
   <time name="total">  700.78  700.21</time>
   <energy>
    <i name="e_fr_energy">   -368.29389434 </i>
    <i name="e_wo_entrp">   -368.20190658 </i>
    <i name="e_0_energy">   -368.26323176 </i>
   </energy>
  </scstep>
  <scstep>
   <time name="dav">  682.42  681.85</time>
   <time name="total">  712.05  711.46</time>
   <energy>
    <i name="e_fr_energy">   -368.29813823 </i>
    <i name="e_wo_entrp">   -368.20626292 </i>
    <i name="e_0_energy">   -368.26751313 </i>
   </energy>
  </scstep>
  <scstep>
   <time name="dav">  592.85  592.37</time>
   <time name="total">  620.50  619.99</time>
   <energy>
    <i name="e_fr_energy">   -368.29084700 </i>
    <i name="e_wo_entrp">   -368.19909671 </i>
    <i name="e_0_energy">   -368.26026357 </i>
   </energy>
  </scstep>
  <scstep>
   <time name="dav">  653.39  652.85</time>
   <time name="total">  680.68  680.11</time>
   <energy>
    <i name="e_fr_energy">   -368.29070244 </i>
    <i name="e_wo_entrp">   -368.19896670 </i>
    <i name="e_0_energy">   -368.26012386 </i>
   </energy>
  </scstep>
  <scstep>
   <time name="dav">  605.51  605.01</time>
   <time name="total">  632.30  631.88</time>
   <energy>
    <i name="e_fr_energy">   -368.29055642 </i>
    <i name="e_wo_entrp">   -368.19885164 </i>
    <i name="e_0_energy">   -368.25998816 </i>
   </energy>
  </scstep>
  <scstep>
   <time name="dav">  664.50  663.96</time>
   <time name="total">  691.75  691.18</time>
   <energy>
    <i name="e_fr_energy">   -368.29043847 </i>
    <i name="e_wo_entrp">   -368.19875908 </i>
    <i name="e_0_energy">   -368.25987868 </i>
   </energy>
  </scstep>
  <scstep>
   <time name="dav">  665.75  665.20</time>
   <time name="total">  692.98  692.41</time>
   <energy>
    <i name="e_fr_energy">   -368.29054268 </i>
    <i name="e_wo_entrp">   -368.19889018 </i>
    <i name="e_0_energy">   -368.25999185 </i>
   </energy>
  </scstep>
  <scstep>
   <time name="dav">  727.46 2709.56</time>
   <time name="total">  754.70 2736.78</time>
   <energy>
    <i name="e_fr_energy">   -368.29017850 </i>
    <i name="e_wo_entrp">   -368.19855703 </i>
    <i name="e_0_energy">   -368.25963801 </i>
   </energy>
  </scstep>
  <scstep>
   <time name="dav">  743.59  743.55</time>
   <time name="total">  770.74  770.68</time>
   <energy>
    <i name="e_fr_energy">   -368.29013261 </i>
    <i name="e_wo_entrp">   -368.19851035 </i>
    <i name="e_0_energy">   -368.25959186 </i>
   </energy>
  </scstep>
  <scstep>
   <time name="dav">  720.52  719.93</time>
   <time name="total">  747.57  746.96</time>
   <energy>
    <i name="e_fr_energy">   -368.29014456 </i>
    <i name="e_wo_entrp">   -368.19851568 </i>
    <i name="e_0_energy">   -368.25960160 </i>
   </energy>
  </scstep>
  <scstep>
   <time name="dav">  579.42  578.95</time>
   <time name="total">  604.32  603.82</time>
   <energy>
    <i name="e_fr_energy">   -368.29013368 </i>
    <i name="e_wo_entrp">   -368.19849973 </i>
    <i name="e_0_energy">   -368.25958903 </i>
   </energy>
  </scstep>
  <scstep>
   <time name="dav">  498.18  497.77</time>
   <time name="total">  522.64  522.21</time>
   <energy>
    <i name="e_fr_energy">   -368.29013631 </i>
    <i name="e_wo_entrp">   -368.19849627 </i>
    <i name="e_0_energy">   -368.25958963 </i>
   </energy>
  </scstep>
  <scstep>
   <time name="dav">  403.01  402.68</time>
   <time name="total">  427.52  427.17</time>
   <energy>
    <i name="e_fr_energy">   -368.29013374 </i>
    <i name="e_wo_entrp">   -368.19848658 </i>
    <i name="e_0_energy">   -368.25958469 </i>
   </energy>
  </scstep>
  <scstep>
   <time name="dav">  345.91  345.63</time>
   <time name="total">  348.14  347.85</time>
   <energy>
    <i name="alphaZ">   9846.09864404 </i>
    <i name="ewald">-153430.88980213 </i>
    <i name="hartreedc"> -59479.41638264 </i>
    <i name="XCdc">   5628.32799798 </i>
    <i name="pawpsdc"> 172130.29598275 </i>
    <i name="pawaedc">-181181.24832407 </i>
    <i name="eentropy">     -0.09164777 </i>
    <i name="bandstr"> -17894.65803286 </i>
    <i name="atom"> 224013.29143063 </i>
    <i name="e_fr_energy">   -368.29013408 </i>
    <i name="e_wo_entrp">   -368.19848631 </i>
    <i name="e_0_energy">   -368.25958482 </i>
   </energy>
  </scstep>
  <structure>
   <crystal>
    <varray name="basis" >
     <v>       0.00000000       7.05000000       7.05000000 </v>
     <v>       7.05000000       0.00000000       7.05000000 </v>
     <v>       7.05000000       7.05000000       0.00000000 </v>
    </varray>
    <i name="volume">    700.80525000 </i>
    <varray name="rec_basis" >
     <v>      -0.07092199       0.07092199       0.07092199 </v>
     <v>       0.07092199      -0.07092199       0.07092199 </v>
     <v>       0.07092199       0.07092199      -0.07092199 </v>
    </varray>
   </crystal>
   <varray name="positions" >
    <v>       0.00106383      -0.00106383      -0.00106383 </v>
    <v>       0.00000000       0.00000000       0.25000000 </v>
    <v>       0.00000000       0.00000000       0.50000000 </v>
    <v>       0.00000000       0.00000000       0.75000000 </v>
    <v>       0.00000000       0.25000000       0.00000000 </v>
    <v>       0.00000000       0.25000000       0.25000000 </v>
    <v>       0.00000000       0.25000000       0.50000000 </v>
    <v>       0.00000000       0.25000000       0.75000000 </v>
    <v>       0.00000000       0.50000000       0.00000000 </v>
    <v>       0.00000000       0.50000000       0.25000000 </v>
    <v>       0.00000000       0.50000000       0.50000000 </v>
    <v>       0.00000000       0.50000000       0.75000000 </v>
    <v>       0.00000000       0.75000000       0.00000000 </v>
    <v>       0.00000000       0.75000000       0.25000000 </v>
    <v>       0.00000000       0.75000000       0.50000000 </v>
    <v>       0.00000000       0.75000000       0.75000000 </v>
    <v>       0.25000000       0.00000000       0.00000000 </v>
    <v>       0.25000000       0.00000000       0.25000000 </v>
    <v>       0.25000000       0.00000000       0.50000000 </v>
    <v>       0.25000000       0.00000000       0.75000000 </v>
    <v>       0.25000000       0.25000000       0.00000000 </v>
    <v>       0.25000000       0.25000000       0.25000000 </v>
    <v>       0.25000000       0.25000000       0.50000000 </v>
    <v>       0.25000000       0.25000000       0.75000000 </v>
    <v>       0.25000000       0.50000000       0.00000000 </v>
    <v>       0.25000000       0.50000000       0.25000000 </v>
    <v>       0.25000000       0.50000000       0.50000000 </v>
    <v>       0.25000000       0.50000000       0.75000000 </v>
    <v>       0.25000000       0.75000000       0.00000000 </v>
    <v>       0.25000000       0.75000000       0.25000000 </v>
    <v>       0.25000000       0.75000000       0.50000000 </v>
    <v>       0.25000000       0.75000000       0.75000000 </v>
    <v>       0.50000000       0.00000000       0.00000000 </v>
    <v>       0.50000000       0.00000000       0.25000000 </v>
    <v>       0.50000000       0.00000000       0.50000000 </v>
    <v>       0.50000000       0.00000000       0.75000000 </v>
    <v>       0.50000000       0.25000000       0.00000000 </v>
    <v>       0.50000000       0.25000000       0.25000000 </v>
    <v>       0.50000000       0.25000000       0.50000000 </v>
    <v>       0.50000000       0.25000000       0.75000000 </v>
    <v>       0.50000000       0.50000000       0.00000000 </v>
    <v>       0.50000000       0.50000000       0.25000000 </v>
    <v>       0.50000000       0.50000000       0.50000000 </v>
    <v>       0.50000000       0.50000000       0.75000000 </v>
    <v>       0.50000000       0.75000000       0.00000000 </v>
    <v>       0.50000000       0.75000000       0.25000000 </v>
    <v>       0.50000000       0.75000000       0.50000000 </v>
    <v>       0.50000000       0.75000000       0.75000000 </v>
    <v>       0.75000000       0.00000000       0.00000000 </v>
    <v>       0.75000000       0.00000000       0.25000000 </v>
    <v>       0.75000000       0.00000000       0.50000000 </v>
    <v>       0.75000000       0.00000000       0.75000000 </v>
    <v>       0.75000000       0.25000000       0.00000000 </v>
    <v>       0.75000000       0.25000000       0.25000000 </v>
    <v>       0.75000000       0.25000000       0.50000000 </v>
    <v>       0.75000000       0.25000000       0.75000000 </v>
    <v>       0.75000000       0.50000000       0.00000000 </v>
    <v>       0.75000000       0.50000000       0.25000000 </v>
    <v>       0.75000000       0.50000000       0.50000000 </v>
    <v>       0.75000000       0.50000000       0.75000000 </v>
    <v>       0.75000000       0.75000000       0.00000000 </v>
    <v>       0.75000000       0.75000000       0.25000000 </v>
    <v>       0.75000000       0.75000000       0.50000000 </v>
    <v>       0.75000000       0.75000000       0.75000000 </v>
   </varray>
  </structure>
  <varray name="forces" >
[...]
       <r>    23.0360     0.0000   646.0000 </r>
       <r>    23.3210     0.0000   646.0000 </r>
       <r>    23.6059     0.0000   646.0000 </r>
       <r>    23.8909     0.0000   646.0000 </r>
       <r>    24.1758     0.0000   646.0000 </r>
       <r>    24.4607     0.0000   646.0000 </r>
       <r>    24.7457     0.0000   646.0000 </r>
       <r>    25.0306     0.0000   646.0000 </r>
       <r>    25.3156     0.0000   646.0000 </r>
      </set>
      <set comment="spin 2">
       <r>   -60.1664     0.0000     0.0000 </r>
       <r>   -59.8814     0.0000     0.0000 </r>
       <r>   -59.5965     0.0000     0.0000 </r>
       <r>   -59.3115     0.0000     0.0000 </r>
       <r>   -59.0266     0.0000     0.0000 </r>
       <r>   -58.7417     0.0000     0.0000 </r>
       <r>   -58.4567     0.0000     0.0000 </r>
       <r>   -58.1718     0.0000     0.0000 </r>
       <r>   -57.8868     0.0000     0.0000 </r>
       <r>   -57.6019     0.0000     0.0000 </r>
       <r>   -57.3170     0.0000     0.0000 </r>
       <r>   -57.0320    -0.0000    -0.0000 </r>
       <r>   -56.7471    -0.0000    -0.0000 </r>
       <r>   -56.4621    -0.0000    -0.0000 </r>
       <r>   -56.1772    -0.0000    -0.0000 </r>
       <r>   -55.8923    -0.1326    -0.0378 </r>
       <r>   -55.6073   -13.7457    -3.9545 </r>
       <r>   -55.3224   244.2808    65.6508 </r>
       <r>   -55.0374   459.0935   196.4648 </r>
       <r>   -54.7525   -14.9132   192.2154 </r>
       <r>   -54.4676    -0.7558   192.0001 </r>
       <r>   -54.1826    -0.0002   192.0000 </r>
       <r>   -53.8977    -0.0000   192.0000 </r>
       <r>   -53.6127     0.0000   192.0000 </r>
       <r>   -53.3278     0.0000   192.0000 </r>
       <r>   -53.0429     0.0000   192.0000 </r>
       <r>   -52.7579     0.0000   192.0000 </r>
       <r>   -52.4730     0.0000   192.0000 </r>
       <r>   -52.1880     0.0000   192.0000 </r>
       <r>   -51.9031     0.0000   192.0000 </r>
       <r>   -51.6182     0.0000   192.0000 </r>
       <r>   -51.3332     0.0000   192.0000 </r>
       <r>   -51.0483     0.0000   192.0000 </r>
       <r>   -50.7633     0.0000   192.0000 </r>
       <r>   -50.4784     0.0000   192.0000 </r>
       <r>   -50.1935     0.0000   192.0000 </r>
       <r>   -49.9085     0.0000   192.0000 </r>
       <r>   -49.6236     0.0000   192.0000 </r>
       <r>   -49.3386     0.0000   192.0000 </r>
       <r>   -49.0537     0.0000   192.0000 </r>
       <r>   -48.7688     0.0000   192.0000 </r>
       <r>   -48.4838     0.0000   192.0000 </r>
       <r>   -48.1989     0.0000   192.0000 </r>
       <r>   -47.9139     0.0000   192.0000 </r>
       <r>   -47.6290     0.0000   192.0000 </r>
       <r>   -47.3441     0.0000   192.0000 </r>
       <r>   -47.0591     0.0000   192.0000 </r>
       <r>   -46.7742     0.0000   192.0000 </r>
       <r>   -46.4892     0.0000   192.0000 </r>
       <r>   -46.2043     0.0000   192.0000 </r>
       <r>   -45.9194     0.0000   192.0000 </r>
       <r>   -45.6344     0.0000   192.0000 </r>
       <r>   -45.3495     0.0000   192.0000 </r>
       <r>   -45.0645     0.0000   192.0000 </r>
       <r>   -44.7796     0.0000   192.0000 </r>
       <r>   -44.4947     0.0000   192.0000 </r>
       <r>   -44.2097     0.0000   192.0000 </r>
       <r>   -43.9248     0.0000   192.0000 </r>
       <r>   -43.6398     0.0000   192.0000 </r>
       <r>   -43.3549     0.0000   192.0000 </r>
       <r>   -43.0700     0.0000   192.0000 </r>
       <r>   -42.7850     0.0000   192.0000 </r>
       <r>   -42.5001     0.0000   192.0000 </r>
       <r>   -42.2151     0.0000   192.0000 </r>
       <r>   -41.9302     0.0000   192.0000 </r>
       <r>   -41.6453     0.0000   192.0000 </r>
       <r>   -41.3603     0.0000   192.0000 </r>
       <r>   -41.0754     0.0000   192.0000 </r>
       <r>   -40.7904     0.0000   192.0000 </r>
       <r>   -40.5055     0.0000   192.0000 </r>
       <r>   -40.2206     0.0000   192.0000 </r>
       <r>   -39.9356     0.0000   192.0000 </r>
       <r>   -39.6507     0.0000   192.0000 </r>
       <r>   -39.3658     0.0000   192.0000 </r>
       <r>   -39.0808     0.0000   192.0000 </r>
       <r>   -38.7959     0.0000   192.0000 </r>
       <r>   -38.5109     0.0000   192.0000 </r>
       <r>   -38.2260     0.0000   192.0000 </r>
       <r>   -37.9411     0.0000   192.0000 </r>
       <r>   -37.6561     0.0000   192.0000 </r>
       <r>   -37.3712     0.0000   192.0000 </r>
       <r>   -37.0862     0.0000   192.0000 </r>
       <r>   -36.8013     0.0000   192.0000 </r>
       <r>   -36.5164     0.0000   192.0000 </r>
       <r>   -36.2314     0.0000   192.0000 </r>
       <r>   -35.9465     0.0000   192.0000 </r>
       <r>   -35.6615     0.0000   192.0000 </r>
       <r>   -35.3766     0.0000   192.0000 </r>
       <r>   -35.0917     0.0000   192.0000 </r>
       <r>   -34.8067     0.0000   192.0000 </r>
       <r>   -34.5218     0.0000   192.0000 </r>
       <r>   -34.2368     0.0000   192.0000 </r>
       <r>   -33.9519     0.0000   192.0000 </r>
       <r>   -33.6670     0.0000   192.0000 </r>
       <r>   -33.3820     0.0000   192.0000 </r>
       <r>   -33.0971     0.0000   192.0000 </r>
       <r>   -32.8121     0.0000   192.0000 </r>
       <r>   -32.5272     0.0000   192.0000 </r>
       <r>   -32.2423     0.0000   192.0000 </r>
       <r>   -31.9573     0.0000   192.0000 </r>
       <r>   -31.6724     0.0000   192.0000 </r>
       <r>   -31.3874     0.0000   192.0000 </r>
       <r>   -31.1025     0.0000   192.0000 </r>
       <r>   -30.8176     0.0000   192.0000 </r>
       <r>   -30.5326     0.0000   192.0000 </r>
       <r>   -30.2477     0.0000   192.0000 </r>
       <r>   -29.9627     0.0000   192.0000 </r>
       <r>   -29.6778     0.0000   192.0000 </r>
       <r>   -29.3929     0.0000   192.0000 </r>
       <r>   -29.1079     0.0000   192.0000 </r>
       <r>   -28.8230     0.0000   192.0000 </r>
       <r>   -28.5380     0.0000   192.0000 </r>
       <r>   -28.2531     0.0000   192.0000 </r>
       <r>   -27.9682     0.0000   192.0000 </r>
       <r>   -27.6832     0.0000   192.0000 </r>
       <r>   -27.3983     0.0000   192.0000 </r>
       <r>   -27.1133     0.0000   192.0000 </r>
       <r>   -26.8284     0.0000   192.0000 </r>
       <r>   -26.5435     0.0000   192.0000 </r>
       <r>   -26.2585     0.0000   192.0000 </r>
       <r>   -25.9736     0.0000   192.0000 </r>
       <r>   -25.6886     0.0000   192.0000 </r>
       <r>   -25.4037     0.0000   192.0000 </r>
       <r>   -25.1188     0.0000   192.0000 </r>
       <r>   -24.8338     0.0000   192.0000 </r>
       <r>   -24.5489     0.0000   192.0000 </r>
       <r>   -24.2639     0.0000   192.0000 </r>
       <r>   -23.9790     0.0000   192.0000 </r>
       <r>   -23.6941     0.0000   192.0000 </r>
       <r>   -23.4091     0.0000   192.0000 </r>
       <r>   -23.1242     0.0000   192.0000 </r>
       <r>   -22.8392     0.0000   192.0000 </r>
       <r>   -22.5543     0.0000   192.0000 </r>
       <r>   -22.2694     0.0000   192.0000 </r>
       <r>   -21.9844     0.0000   192.0000 </r>
       <r>   -21.6995     0.0000   192.0000 </r>
       <r>   -21.4145     0.0000   192.0000 </r>
       <r>   -21.1296     0.0000   192.0000 </r>
       <r>   -20.8447     0.0000   192.0000 </r>
       <r>   -20.5597     0.0000   192.0000 </r>
       <r>   -20.2748     0.0000   192.0000 </r>
       <r>   -19.9898     0.0000   192.0000 </r>
       <r>   -19.7049     0.0000   192.0000 </r>
       <r>   -19.4200     0.0000   192.0000 </r>
       <r>   -19.1350     0.0000   192.0000 </r>
       <r>   -18.8501     0.0000   192.0000 </r>
       <r>   -18.5652     0.0000   192.0000 </r>
       <r>   -18.2802     0.0000   192.0000 </r>
       <r>   -17.9953     0.0000   192.0000 </r>
       <r>   -17.7103     0.0000   192.0000 </r>
       <r>   -17.4254     0.0000   192.0000 </r>
       <r>   -17.1405     0.0000   192.0000 </r>
       <r>   -16.8555     0.0000   192.0000 </r>
       <r>   -16.5706     0.0000   192.0000 </r>
       <r>   -16.2856     0.0000   192.0000 </r>
       <r>   -16.0007     0.0000   192.0000 </r>
       <r>   -15.7158     0.0000   192.0000 </r>
       <r>   -15.4308     0.0000   192.0000 </r>
       <r>   -15.1459     0.0000   192.0000 </r>
       <r>   -14.8609     0.0000   192.0000 </r>
       <r>   -14.5760     0.0000   192.0000 </r>
       <r>   -14.2911     0.0000   192.0000 </r>
       <r>   -14.0061     0.0000   192.0000 </r>
       <r>   -13.7212     0.0000   192.0000 </r>
       <r>   -13.4362     0.0000   192.0000 </r>
       <r>   -13.1513     0.0000   192.0000 </r>
       <r>   -12.8664     0.0000   192.0000 </r>
       <r>   -12.5814     0.0000   192.0000 </r>
       <r>   -12.2965     0.0000   192.0000 </r>
       <r>   -12.0115     0.0000   192.0000 </r>
       <r>   -11.7266     0.0000   192.0000 </r>
       <r>   -11.4417     0.0000   192.0000 </r>
       <r>   -11.1567     0.0000   192.0000 </r>
       <r>   -10.8718     0.0000   192.0000 </r>
       <r>   -10.5868     0.0000   192.0000 </r>
       <r>   -10.3019     0.0000   192.0000 </r>
       <r>   -10.0170     0.0000   192.0000 </r>
       <r>    -9.7320     0.0000   192.0000 </r>
       <r>    -9.4471     0.0000   192.0000 </r>
       <r>    -9.1621     0.0000   192.0000 </r>
       <r>    -8.8772     0.0000   192.0000 </r>
       <r>    -8.5923     0.0000   192.0000 </r>
       <r>    -8.3073     0.0000   192.0000 </r>
       <r>    -8.0224     0.0000   192.0000 </r>
       <r>    -7.7374     0.0000   192.0000 </r>
       <r>    -7.4525     0.0000   192.0000 </r>
       <r>    -7.1676     0.0000   192.0000 </r>
       <r>    -6.8826     0.0000   192.0000 </r>
       <r>    -6.5977     0.0000   192.0000 </r>
       <r>    -6.3127     0.0000   192.0000 </r>
       <r>    -6.0278     0.0000   192.0000 </r>
       <r>    -5.7429     0.0000   192.0000 </r>
       <r>    -5.4579     0.0000   192.0000 </r>
       <r>    -5.1730     0.0000   192.0000 </r>
       <r>    -4.8880     0.0000   192.0000 </r>
       <r>    -4.6031     0.0000   192.0000 </r>
       <r>    -4.3182     0.0000   192.0000 </r>
       <r>    -4.0332     0.0000   192.0000 </r>
       <r>    -3.7483     0.0000   192.0000 </r>
       <r>    -3.4633     0.0000   192.0000 </r>
       <r>    -3.1784     0.0000   192.0000 </r>
       <r>    -2.8935    -0.0000   192.0000 </r>
       <r>    -2.6085    -0.0000   192.0000 </r>
       <r>    -2.3236    -0.0000   192.0000 </r>
       <r>    -2.0386    -0.0000   192.0000 </r>
       <r>    -1.7537    -0.0002   191.9999 </r>
       <r>    -1.4688    -0.0057   191.9983 </r>
       <r>    -1.1838     0.0642   192.0166 </r>
       <r>    -0.8989     1.3301   192.3956 </r>
       <r>    -0.6139     0.8983   192.6516 </r>
       <r>    -0.3290     2.4017   193.3359 </r>
       <r>    -0.0441     3.0580   194.2073 </r>
       <r>     0.2409     0.6531   194.3934 </r>
       <r>     0.5258     5.3122   195.9070 </r>
       <r>     0.8107     2.9720   196.7539 </r>
       <r>     1.0957     4.6124   198.0681 </r>
       <r>     1.3806     1.0387   198.3641 </r>
       <r>     1.6656     7.8859   200.6111 </r>
       <r>     1.9505     5.2962   202.1202 </r>
       <r>     2.2354     6.5226   203.9788 </r>
       <r>     2.5204     3.0049   204.8350 </r>
       <r>     2.8053     9.8551   207.6431 </r>
       <r>     3.0903    13.6735   211.5392 </r>
       <r>     3.3752    11.3807   214.7820 </r>
       <r>     3.6601    22.1671   221.0983 </r>
       <r>     3.9451    38.5713   232.0888 </r>
       <r>     4.2300    25.5344   239.3646 </r>
       <r>     4.5150    52.6714   254.3727 </r>
       <r>     4.7999    55.0496   270.0586 </r>
       <r>     5.0848    50.6742   284.4976 </r>
       <r>     5.3698    53.2177   299.6615 </r>
       <r>     5.6547    68.1045   319.0671 </r>
       <r>     5.9397    79.1510   341.6204 </r>
       <r>     6.2246    91.0858   367.5744 </r>
       <r>     6.5095    86.1657   392.1264 </r>
       <r>     6.7945    65.7025   410.8477 </r>
       <r>     7.0794    83.2841   434.5786 </r>
       <r>     7.3644    68.9412   454.2227 </r>
       <r>     7.6493    82.0811   477.6109 </r>
       <r>     7.9342    99.1354   505.8585 </r>
       <r>     8.2192    76.2951   527.5980 </r>
       <r>     8.5041    24.2806   534.5165 </r>
       <r>     8.7891    11.8018   537.8793 </r>
       <r>     9.0740     3.9857   539.0150 </r>
       <r>     9.3589    12.8461   542.6753 </r>
       <r>     9.6439    12.1622   546.1408 </r>
       <r>     9.9288    12.5914   549.7286 </r>
       <r>    10.2138     5.0569   551.1695 </r>
       <r>    10.4987     8.7973   553.6763 </r>
       <r>    10.7836     9.2570   556.3139 </r>
       <r>    11.0686     7.4058   558.4242 </r>
       <r>    11.3535    12.3295   561.9373 </r>
       <r>    11.6385     2.8089   562.7377 </r>
       <r>    11.9234    10.2538   565.6594 </r>
       <r>    12.2083     7.5075   567.7986 </r>
       <r>    12.4933    -0.2871   567.7168 </r>
       <r>    12.7782     3.7592   568.7879 </r>
       <r>    13.0632    10.4682   571.7707 </r>
       <r>    13.3481     3.4834   572.7633 </r>
       <r>    13.6330     1.4152   573.1666 </r>
       <r>    13.9180     9.6190   575.9074 </r>
       <r>    14.2029     8.0583   578.2035 </r>
       <r>    14.4879     9.4182   580.8872 </r>
       <r>    14.7728     8.4115   583.2840 </r>
       <r>    15.0577     8.0060   585.5652 </r>
       <r>    15.3427     8.8910   588.0986 </r>
       <r>    15.6276    10.8311   591.1848 </r>
       <r>    15.9126     6.0708   592.9146 </r>
       <r>    16.1975    12.7585   596.5500 </r>
       <r>    16.4824     8.7443   599.0416 </r>
       <r>    16.7674     3.1920   599.9511 </r>
       <r>    17.0523     7.5825   602.1117 </r>
       <r>    17.3373     9.2330   604.7425 </r>
       <r>    17.6222     7.1668   606.7846 </r>
       <r>    17.9071     9.0353   609.3591 </r>
       <r>    18.1921     9.2702   612.0006 </r>
       <r>    18.4770    11.1650   615.1819 </r>
       <r>    18.7620    18.2595   620.3848 </r>
       <r>    19.0469    12.9701   624.0805 </r>
       <r>    19.3318     7.5824   626.2410 </r>
       <r>    19.6168    14.2385   630.2981 </r>
       <r>    19.9017    13.3927   634.1142 </r>
       <r>    20.1867     3.4613   635.1005 </r>
       <r>    20.4716    12.5756   638.6838 </r>
       <r>    20.7565     9.7253   641.4549 </r>
       <r>    21.0415    12.6508   645.0596 </r>
       <r>    21.3264     1.3470   645.4434 </r>
       <r>    21.6113     1.9842   646.0088 </r>
       <r>    21.8963    -0.0253   646.0016 </r>
       <r>    22.1812    -0.0055   646.0000 </r>
       <r>    22.4662    -0.0000   646.0000 </r>
       <r>    22.7511    -0.0000   646.0000 </r>
       <r>    23.0360     0.0000   646.0000 </r>
       <r>    23.3210     0.0000   646.0000 </r>
       <r>    23.6059     0.0000   646.0000 </r>
       <r>    23.8909     0.0000   646.0000 </r>
       <r>    24.1758     0.0000   646.0000 </r>
       <r>    24.4607     0.0000   646.0000 </r>
       <r>    24.7457     0.0000   646.0000 </r>
       <r>    25.0306     0.0000   646.0000 </r>
       <r>    25.3156     0.0000   646.0000 </r>
      </set>
     </set>
    </array>
   </total>
  </dos>
 </calculation>
 <structure name="finalpos" >
  <crystal>
   <varray name="basis" >
    <v>       0.00000000       7.05000000       7.05000000 </v>
    <v>       7.05000000       0.00000000       7.05000000 </v>
    <v>       7.05000000       7.05000000       0.00000000 </v>
   </varray>
   <i name="volume">    700.80525000 </i>
   <varray name="rec_basis" >
    <v>      -0.07092199       0.07092199       0.07092199 </v>
    <v>       0.07092199      -0.07092199       0.07092199 </v>
    <v>       0.07092199       0.07092199      -0.07092199 </v>
   </varray>
  </crystal>
  <varray name="positions" >
   <v>       0.00212766      -0.00212766      -0.00212766 </v>
   <v>       0.00000000       0.00000000       0.25000000 </v>
   <v>       0.00000000       0.00000000       0.50000000 </v>
   <v>       0.00000000       0.00000000       0.75000000 </v>
   <v>       0.00000000       0.25000000       0.00000000 </v>
   <v>       0.00000000       0.25000000       0.25000000 </v>
   <v>       0.00000000       0.25000000       0.50000000 </v>
   <v>       0.00000000       0.25000000       0.75000000 </v>
   <v>       0.00000000       0.50000000       0.00000000 </v>
   <v>       0.00000000       0.50000000       0.25000000 </v>
   <v>       0.00000000       0.50000000       0.50000000 </v>
   <v>       0.00000000       0.50000000       0.75000000 </v>
   <v>       0.00000000       0.75000000       0.00000000 </v>
   <v>       0.00000000       0.75000000       0.25000000 </v>
   <v>       0.00000000       0.75000000       0.50000000 </v>
   <v>       0.00000000       0.75000000       0.75000000 </v>
   <v>       0.25000000       0.00000000       0.00000000 </v>
   <v>       0.25000000       0.00000000       0.25000000 </v>
   <v>       0.25000000       0.00000000       0.50000000 </v>
   <v>       0.25000000       0.00000000       0.75000000 </v>
   <v>       0.25000000       0.25000000       0.00000000 </v>
   <v>       0.25000000       0.25000000       0.25000000 </v>
   <v>       0.25000000       0.25000000       0.50000000 </v>
   <v>       0.25000000       0.25000000       0.75000000 </v>
   <v>       0.25000000       0.50000000       0.00000000 </v>
   <v>       0.25000000       0.50000000       0.25000000 </v>
   <v>       0.25000000       0.50000000       0.50000000 </v>
   <v>       0.25000000       0.50000000       0.75000000 </v>
   <v>       0.25000000       0.75000000       0.00000000 </v>
   <v>       0.25000000       0.75000000       0.25000000 </v>
   <v>       0.25000000       0.75000000       0.50000000 </v>
   <v>       0.25000000       0.75000000       0.75000000 </v>
   <v>       0.50000000       0.00000000       0.00000000 </v>
   <v>       0.50000000       0.00000000       0.25000000 </v>
   <v>       0.50000000       0.00000000       0.50000000 </v>
   <v>       0.50000000       0.00000000       0.75000000 </v>
   <v>       0.50000000       0.25000000       0.00000000 </v>
   <v>       0.50000000       0.25000000       0.25000000 </v>
   <v>       0.50000000       0.25000000       0.50000000 </v>
   <v>       0.50000000       0.25000000       0.75000000 </v>
   <v>       0.50000000       0.50000000       0.00000000 </v>
   <v>       0.50000000       0.50000000       0.25000000 </v>
   <v>       0.50000000       0.50000000       0.50000000 </v>
   <v>       0.50000000       0.50000000       0.75000000 </v>
   <v>       0.50000000       0.75000000       0.00000000 </v>
   <v>       0.50000000       0.75000000       0.25000000 </v>
   <v>       0.50000000       0.75000000       0.50000000 </v>
   <v>       0.50000000       0.75000000       0.75000000 </v>
   <v>       0.75000000       0.00000000       0.00000000 </v>
   <v>       0.75000000       0.00000000       0.25000000 </v>
   <v>       0.75000000       0.00000000       0.50000000 </v>
   <v>       0.75000000       0.00000000       0.75000000 </v>
   <v>       0.75000000       0.25000000       0.00000000 </v>
   <v>       0.75000000       0.25000000       0.25000000 </v>
   <v>       0.75000000       0.25000000       0.50000000 </v>
   <v>       0.75000000       0.25000000       0.75000000 </v>
   <v>       0.75000000       0.50000000       0.00000000 </v>
   <v>       0.75000000       0.50000000       0.25000000 </v>
   <v>       0.75000000       0.50000000       0.50000000 </v>
   <v>       0.75000000       0.50000000       0.75000000 </v>
   <v>       0.75000000       0.75000000       0.00000000 </v>
   <v>       0.75000000       0.75000000       0.25000000 </v>
   <v>       0.75000000       0.75000000       0.50000000 </v>
   <v>       0.75000000       0.75000000       0.75000000 </v>
  </varray>
 </structure>
</modeling>
